/*--------------------------------*- C++ -*----------------------------------*\
| =========                 |                                                 |
| \\      /  F ield         | OpenFOAM: The Open Source CFD Toolbox           |
|  \\    /   O peration     | Version:  2412                                  |
|   \\  /    A nd           | Website:  www.openfoam.com                      |
|    \\/     M anipulation  |                                                 |
\*---------------------------------------------------------------------------*/
FoamFile
{
    version     2.0;
    format      ascii;
    arch        "LSB;label=32;scalar=64";
    class       volScalarField;
    location    "0.0339834";
    object      rho;
}
// * * * * * * * * * * * * * * * * * * * * * * * * * * * * * * * * * * * * * //

dimensions      [1 -3 0 0 0 0 0];

internalField   nonuniform List<scalar> 
100
(
0.311578
0.311586
0.311591
0.311651
0.311618
0.311679
0.311623
0.311627
0.311609
0.311439
0.311452
0.311137
0.311158
0.310908
0.310835
0.310716
0.310525
0.310466
0.310198
0.310141
0.309864
0.309778
0.309514
0.309378
0.309106
0.308898
0.308625
0.308407
0.308184
0.307998
0.307801
0.307595
0.307373
0.307152
0.306949
0.306796
0.306664
0.306641
0.306601
0.306504
0.306636
0.307087
0.307911
0.308664
0.312728
0.456921
0.765458
0.803544
0.775479
0.763262
0.770051
0.779087
0.790346
0.803772
0.818945
0.83017
0.833195
0.832673
0.839959
0.850661
0.860788
0.873786
0.884569
0.899259
0.907499
0.898863
0.899425
0.900376
0.91567
0.921109
0.933388
0.950176
0.954446
0.970925
0.974915
0.979667
0.981893
0.984282
0.998242
1.00695
1.04489
1.07998
1.09266
1.10194
1.09672
1.08298
1.07876
1.07856
1.07713
1.06102
1.00754
0.94783
0.900941
0.877373
0.872228
0.874643
0.879965
0.890101
0.893356
0.897161
)
;

boundaryField
{
    sides
    {
        type            calculated;
        value           nonuniform List<scalar> 2(0.897161 0.311578);
    }
    empty
    {
        type            empty;
    }
}


// ************************************************************************* //
