/*--------------------------------*- C++ -*----------------------------------*\
| =========                 |                                                 |
| \\      /  F ield         | OpenFOAM: The Open Source CFD Toolbox           |
|  \\    /   O peration     | Version:  2412                                  |
|   \\  /    A nd           | Website:  www.openfoam.com                      |
|    \\/     M anipulation  |                                                 |
\*---------------------------------------------------------------------------*/
FoamFile
{
    version     2.0;
    format      ascii;
    arch        "LSB;label=32;scalar=64";
    class       surfaceScalarField;
    location    "0.0374557";
    object      phiRhoY_Y_N2;
}
// * * * * * * * * * * * * * * * * * * * * * * * * * * * * * * * * * * * * * //

dimensions      [1 0 -1 0 0 0 0];

internalField   nonuniform List<scalar> 
99
(
3.9136
7.83019
11.7551
15.6742
19.4729
23.2933
27.1287
30.9361
34.8919
38.8944
42.907
46.9318
50.9329
54.8875
58.8405
62.7248
66.5461
70.3017
74.0493
77.8864
81.7095
85.5463
89.3498
93.1598
96.959
100.762
104.565
108.37
112.156
115.884
119.763
124.242
125.187
-25.264
-417.787
-420.026
-390.828
-389.803
-410.192
-418.939
-414.764
-381.674
-361.532
-360.121
-358.955
-369.136
-384.965
-393.723
-396.138
-392.975
-360.558
-320.667
-303.867
-302.559
-310.483
-321.716
-326.224
-327.368
-327.898
-319.155
-302.543
-292.679
-290.795
-291.308
-291.545
-278.688
-255.574
-244.056
-242.309
-247.076
-250.107
-243.508
-219.844
-196.567
-190.333
-191.348
-209.648
-219.023
-213.698
-185.772
-154.974
-129.934
-121.29
-120.3
-127.188
-129.678
-129.908
-118.837
-86.1281
-42.4442
-12.6957
-1.51136
0.300563
0.133943
0.019245
0.00163675
5.22449e-05
2.40813e-08
0
)
;

boundaryField
{
    sides
    {
        type            calculated;
        value           uniform 0;
    }
    empty
    {
        type            empty;
    }
}


// ************************************************************************* //
