/*--------------------------------*- C++ -*----------------------------------*\
| =========                 |                                                 |
| \\      /  F ield         | OpenFOAM: The Open Source CFD Toolbox           |
|  \\    /   O peration     | Version:  2412                                  |
|   \\  /    A nd           | Website:  www.openfoam.com                      |
|    \\/     M anipulation  |                                                 |
\*---------------------------------------------------------------------------*/
FoamFile
{
    version     2.0;
    format      ascii;
    arch        "LSB;label=32;scalar=64";
    class       volScalarField;
    location    "0.0374557";
    object      rho;
}
// * * * * * * * * * * * * * * * * * * * * * * * * * * * * * * * * * * * * * //

dimensions      [1 -3 0 0 0 0 0];

internalField   nonuniform List<scalar> 
100
(
0.273393
0.273403
0.273387
0.27344
0.27345
0.273504
0.27358
0.273489
0.273436
0.27323
0.273118
0.272905
0.272905
0.272889
0.272869
0.272862
0.272776
0.272672
0.272463
0.272371
0.272198
0.272144
0.271983
0.2719
0.271747
0.271632
0.271478
0.271344
0.271216
0.271145
0.271056
0.270648
0.271278
0.315696
0.590103
0.676865
0.668684
0.662554
0.675975
0.69189
0.697963
0.692833
0.685527
0.6894
0.696862
0.708895
0.725084
0.739255
0.749377
0.757347
0.753864
0.738273
0.733442
0.741261
0.752449
0.769107
0.78282
0.792321
0.802071
0.808053
0.808044
0.811301
0.818251
0.830255
0.839318
0.845285
0.845858
0.842192
0.850486
0.859727
0.8777
0.886637
0.882973
0.88284
0.885098
0.89819
0.917356
0.936106
0.945302
0.939766
0.92677
0.917791
0.926736
0.943494
0.966027
0.988629
0.998152
1.00103
0.994249
0.969758
0.935791
0.90633
0.896557
0.902347
0.912101
0.91357
0.914873
0.901275
0.884471
0.879405
)
;

boundaryField
{
    sides
    {
        type            calculated;
        value           nonuniform List<scalar> 2(0.879405 0.273393);
    }
    empty
    {
        type            empty;
    }
}


// ************************************************************************* //
