/*--------------------------------*- C++ -*----------------------------------*\
| =========                 |                                                 |
| \\      /  F ield         | OpenFOAM: The Open Source CFD Toolbox           |
|  \\    /   O peration     | Version:  2412                                  |
|   \\  /    A nd           | Website:  www.openfoam.com                      |
|    \\/     M anipulation  |                                                 |
\*---------------------------------------------------------------------------*/
FoamFile
{
    version     2.0;
    format      ascii;
    arch        "LSB;label=32;scalar=64";
    class       volScalarField;
    location    "0.00642871";
    object      rho;
}
// * * * * * * * * * * * * * * * * * * * * * * * * * * * * * * * * * * * * * //

dimensions      [1 -3 0 0 0 0 0];

internalField   nonuniform List<scalar> 
100
(
1.12308
1.12308
1.12308
1.12308
1.12308
1.12308
1.12308
1.12308
1.12308
1.12308
1.12308
1.12308
1.12308
1.12308
1.12308
1.12308
1.12308
1.12308
1.12308
1.12308
1.12308
1.12308
1.12308
1.12308
1.12308
1.12308
1.12306
1.12188
1.10845
1.06798
1.01541
0.967989
0.927567
0.891443
0.857427
0.825072
0.793137
0.763113
0.733126
0.703791
0.679238
0.64929
0.625341
0.606926
0.57932
0.551472
0.529123
0.523674
0.504326
0.466144
0.440822
0.451149
0.487236
0.487225
0.446553
0.430346
0.453745
0.488108
0.482494
0.445322
0.431903
0.450413
0.49637
0.510248
0.497643
0.463108
0.427469
0.405708
0.393903
0.383284
0.376048
0.374956
0.374964
0.377843
0.383818
0.384755
0.382298
0.379416
0.384177
0.394985
0.370814
0.213464
0.160849
0.160357
0.160357
0.160357
0.160357
0.160357
0.160357
0.160357
0.160357
0.160357
0.160357
0.160357
0.160357
0.160357
0.160357
0.160357
0.160357
0.160357
)
;

boundaryField
{
    sides
    {
        type            calculated;
        value           nonuniform List<scalar> 2(0.160357 1.12308);
    }
    empty
    {
        type            empty;
    }
}


// ************************************************************************* //
