/*--------------------------------*- C++ -*----------------------------------*\
| =========                 |                                                 |
| \\      /  F ield         | OpenFOAM: The Open Source CFD Toolbox           |
|  \\    /   O peration     | Version:  2412                                  |
|   \\  /    A nd           | Website:  www.openfoam.com                      |
|    \\/     M anipulation  |                                                 |
\*---------------------------------------------------------------------------*/
FoamFile
{
    version     2.0;
    format      ascii;
    arch        "LSB;label=32;scalar=64";
    class       volScalarField;
    location    "0.0311263";
    object      rhoY_Y_N2;
}
// * * * * * * * * * * * * * * * * * * * * * * * * * * * * * * * * * * * * * //

dimensions      [1 -3 0 0 0 0 0];

internalField   nonuniform List<scalar> 
100
(
0.351154
0.351144
0.351156
0.35121
0.351209
0.351292
0.351249
0.351298
0.35123
0.351126
0.351089
0.350768
0.350792
0.350421
0.350365
0.350117
0.349904
0.349754
0.349433
0.349343
0.34898
0.34886
0.348484
0.348301
0.347952
0.347733
0.347401
0.347126
0.34677
0.346447
0.346105
0.345789
0.34546
0.345127
0.344795
0.344454
0.344092
0.343756
0.343532
0.343315
0.342887
0.342661
0.342836
0.342993
0.343101
0.34377
0.345819
0.348994
0.351399
0.613099
0.412792
0.410712
0.40506
0.424328
0.735293
0.940118
0.949319
0.928665
0.932659
0.942644
0.942027
0.943077
0.938407
0.944382
0.973702
0.993668
1.00246
0.994197
0.996493
1.01752
1.04194
1.09882
1.12146
1.13689
1.12331
1.10329
1.08467
1.06697
1.07147
1.07457
1.08093
1.085
1.08431
1.08267
1.08384
1.09476
1.10757
1.17879
0.995424
0.606081
0.253358
0.0745689
0.0165187
0.0028193
0.000382562
3.82392e-05
2.7457e-06
1.08195e-07
1.34095e-10
-1.41924e-10
)
;

boundaryField
{
    sides
    {
        type            calculated;
        value           nonuniform List<scalar> 2(0 1.12308);
    }
    empty
    {
        type            empty;
    }
}


// ************************************************************************* //
