/*--------------------------------*- C++ -*----------------------------------*\
| =========                 |                                                 |
| \\      /  F ield         | OpenFOAM: The Open Source CFD Toolbox           |
|  \\    /   O peration     | Version:  2412                                  |
|   \\  /    A nd           | Website:  www.openfoam.com                      |
|    \\/     M anipulation  |                                                 |
\*---------------------------------------------------------------------------*/
FoamFile
{
    version     2.0;
    format      ascii;
    arch        "LSB;label=32;scalar=64";
    class       volScalarField;
    location    "0.0389651";
    object      p;
}
// * * * * * * * * * * * * * * * * * * * * * * * * * * * * * * * * * * * * * //

dimensions      [1 -1 -2 0 0 0 0];

internalField   nonuniform List<scalar> 
100
(
15405.8
15411.4
15417.8
15423
15425
15420.2
15408.7
15394.8
15376.4
15359.6
15351.2
15345.8
15347.2
15353.6
15357.5
15362.2
15366.1
15367.7
15367.3
15366
15362.3
15355.6
15345.4
15334.1
15324.6
15307.7
15272.4
15485.9
25815.5
47499.1
51299.9
51004.2
51410.3
52047
52094.6
50911.1
50989.7
51637.9
52806
54815.8
56337.8
57167.4
57846.9
57686.8
55788.5
54786.2
55205.2
56036
57630.8
59284.4
60390.1
61269.8
62060.9
62080.1
61845.4
62364.8
63404.5
64463.8
65565.3
65465.3
65182.6
65046.9
66327.6
67418
68608.6
69906.4
68818.3
69916
68118.8
71742.3
71857.3
75144.3
76249.2
75190.9
75657.8
72014.2
75077.6
74173.8
77662.8
78392.4
79863.8
81077.5
81195.3
81982.6
81889.5
82624.2
82863.2
83937.4
84112.4
85885.4
86811.4
88316.5
87566.7
87878.5
86770.2
88645.6
91499.5
97877.4
102382
107846
)
;

boundaryField
{
    sides
    {
        type            zeroGradient;
    }
    empty
    {
        type            empty;
    }
}


// ************************************************************************* //
