/*--------------------------------*- C++ -*----------------------------------*\
| =========                 |                                                 |
| \\      /  F ield         | OpenFOAM: The Open Source CFD Toolbox           |
|  \\    /   O peration     | Version:  2412                                  |
|   \\  /    A nd           | Website:  www.openfoam.com                      |
|    \\/     M anipulation  |                                                 |
\*---------------------------------------------------------------------------*/
FoamFile
{
    version     2.0;
    format      ascii;
    arch        "LSB;label=32;scalar=64";
    class       volScalarField;
    location    "0.0323626";
    object      p;
}
// * * * * * * * * * * * * * * * * * * * * * * * * * * * * * * * * * * * * * //

dimensions      [1 -1 -2 0 0 0 0];

internalField   nonuniform List<scalar> 
100
(
20950.7
20955.4
20940.6
20963.7
20918.8
20983
20872.8
21023
20799.3
21079.3
20717.2
21117.3
20659.3
21106.1
20649.6
21046.9
20671.5
20965.5
20694.7
20876.9
20700.9
20797.7
20691.1
20735.5
20672.4
20684.5
20642.5
20636.5
20604.3
20591
20563.8
20547.9
20521.4
20502.9
20476.8
20455.6
20433.4
20408.9
20409.2
20387.2
20374.7
20382.8
20386.5
20426.9
20503.2
20628.8
20811.1
21064.7
21181.8
21560.4
34460
67968.2
75045.3
73420.2
72548.1
72540.1
73466
72836.1
74646.9
75280.9
77863.1
79133.5
79563.4
82007.4
78280.4
83533.7
79657.7
85351.1
85325
86845.1
90185.4
84585.9
89315.1
84445.9
92317.4
96575.8
100563
102836
100262
100066
97040.7
97845.8
97452.4
98279.7
97479.3
96973.2
95852.5
96491.3
96579
97330.7
97814.4
98428.1
96843.8
97765.8
97393
99513.2
98934.6
98456.2
96532.6
95459
)
;

boundaryField
{
    sides
    {
        type            zeroGradient;
    }
    empty
    {
        type            empty;
    }
}


// ************************************************************************* //
