/*--------------------------------*- C++ -*----------------------------------*\
| =========                 |                                                 |
| \\      /  F ield         | OpenFOAM: The Open Source CFD Toolbox           |
|  \\    /   O peration     | Version:  2412                                  |
|   \\  /    A nd           | Website:  www.openfoam.com                      |
|    \\/     M anipulation  |                                                 |
\*---------------------------------------------------------------------------*/
FoamFile
{
    version     2.0;
    format      ascii;
    arch        "LSB;label=32;scalar=64";
    class       volVectorField;
    location    "0.005";
    object      U;
}
// * * * * * * * * * * * * * * * * * * * * * * * * * * * * * * * * * * * * * //

dimensions      [0 1 -1 0 0 0 0];

internalField   nonuniform List<vector> 
1800
(
(2.9 3.1734e-08 0)
(2.9 1.40006e-08 0)
(2.9 1.10187e-08 0)
(2.9 8.98479e-08 0)
(2.9 1.60422e-08 0)
(2.9 6.88607e-08 0)
(2.9 2.79139e-08 0)
(2.9 2.278e-08 0)
(2.9 3.28778e-08 0)
(2.9 1.29028e-08 0)
(2.9 9.71517e-09 0)
(2.9 3.53405e-08 0)
(2.9 8.10642e-08 0)
(2.9 3.64226e-08 0)
(2.9 1.31793e-08 0)
(2.9 8.70077e-08 0)
(2.9 9.42945e-08 0)
(2.9 2.77374e-08 0)
(2.9 3.07925e-10 0)
(2.9 -2.42773e-08 0)
(2.9 -2.24172e-08 0)
(2.9 -2.61995e-09 0)
(2.9 3.59608e-08 0)
(2.9 -7.62913e-09 0)
(2.9 -8.07308e-09 0)
(2.9 5.48101e-08 0)
(2.9 2.65692e-08 0)
(2.9 7.94796e-09 0)
(2.9 3.94089e-09 0)
(2.9 -9.49191e-09 0)
(2.9 -6.48963e-09 0)
(2.9 3.55653e-08 0)
(2.9 1.38887e-08 0)
(2.9 -1.57974e-08 0)
(2.9 -1.87847e-08 0)
(2.9 9.59024e-09 0)
(2.9 -9.08776e-09 0)
(2.9 -4.70058e-08 0)
(2.9 -6.22632e-08 0)
(2.9 -4.78213e-08 0)
(2.9 -3.28358e-08 0)
(2.9 -1.92159e-08 0)
(2.9 -4.42024e-08 0)
(2.9 -1.00853e-08 0)
(2.9 2.57779e-08 0)
(2.9 -1.78201e-08 0)
(2.9 -3.47268e-09 0)
(2.9 2.59565e-08 0)
(2.9 3.97753e-08 0)
(2.9 1.90914e-08 0)
(2.9 5.60456e-08 0)
(2.9 7.8362e-08 0)
(2.9 1.8039e-09 0)
(2.9 -2.51229e-08 0)
(2.9 -1.00587e-09 0)
(2.9 2.25693e-08 0)
(2.9 2.13013e-09 0)
(2.9 8.82906e-08 0)
(2.9 4.32434e-08 0)
(2.9 -6.5622e-09 0)
(2.9 1.73853e-08 0)
(2.9 4.4064e-08 0)
(2.9 9.42835e-08 0)
(2.9 1.58838e-07 0)
(2.9 1.08182e-07 0)
(2.9 1.10575e-07 0)
(2.9 7.27075e-08 0)
(2.9 5.17244e-08 0)
(2.9 8.34727e-08 0)
(2.9 1.09641e-07 0)
(2.9 1.03138e-07 0)
(2.9 8.63863e-08 0)
(2.9 1.45757e-07 0)
(2.9 8.86064e-08 0)
(2.9 1.06745e-07 0)
(2.9 1.53487e-07 0)
(2.9 1.58094e-07 0)
(2.9 4.08837e-08 0)
(2.9 2.12451e-08 0)
(2.9 -3.33054e-08 0)
(2.9 -3.15573e-08 0)
(2.9 2.02929e-08 0)
(2.9 6.7399e-08 0)
(2.9 -7.89645e-09 0)
(2.9 -5.79836e-09 0)
(2.9 7.97428e-08 0)
(2.9 2.53031e-08 0)
(2.9 -8.03861e-09 0)
(2.9 2.0086e-08 0)
(2.9 6.00941e-08 0)
(2.9 6.90595e-08 0)
(2.9 9.18464e-08 0)
(2.9 8.97009e-08 0)
(2.9 4.03353e-08 0)
(2.9 7.13037e-08 0)
(2.9 5.53434e-08 0)
(2.9 3.76288e-08 0)
(2.9 -6.92937e-08 0)
(2.9 -1.18622e-07 0)
(2.9 -1.02377e-07 0)
(2.9 -2.84893e-08 0)
(2.9 -6.19012e-08 0)
(2.9 -5.85742e-08 0)
(2.9 -4.60558e-08 0)
(2.9 -2.5912e-09 0)
(2.9 -5.93427e-08 0)
(2.9 -9.14842e-09 0)
(2.9 6.1869e-08 0)
(2.9 6.67392e-08 0)
(2.9 9.674e-08 0)
(2.9 1.30887e-07 0)
(2.9 9.68782e-08 0)
(2.9 -1.01981e-08 0)
(2.9 -5.83147e-08 0)
(2.9 -1.4237e-08 0)
(2.9 1.91832e-08 0)
(2.9 5.09133e-08 0)
(2.9 1.68484e-07 0)
(2.9 8.38281e-08 0)
(2.9 3.96819e-08 0)
(2.9 2.61019e-08 0)
(2.9 6.54191e-08 0)
(2.9 1.49025e-07 0)
(2.9 1.44781e-07 0)
(2.9 1.826e-07 0)
(2.9 1.54858e-07 0)
(2.9 1.04016e-07 0)
(2.9 4.95589e-08 0)
(2.9 1.11328e-07 0)
(2.9 1.84004e-07 0)
(2.9 1.75565e-07 0)
(2.9 1.06656e-07 0)
(2.9 1.10155e-07 0)
(2.9 1.02603e-07 0)
(2.9 1.92075e-07 0)
(2.9 1.96323e-07 0)
(2.9 2.08948e-07 0)
(2.9 1.26906e-07 0)
(2.9 6.71789e-08 0)
(2.9 6.89232e-08 0)
(2.9 5.42186e-08 0)
(2.9 4.16116e-08 0)
(2.9 2.49494e-08 0)
(2.9 -2.03724e-08 0)
(2.9 8.84222e-09 0)
(2.9 1.13009e-07 0)
(2.9 9.09147e-08 0)
(2.9 7.53592e-08 0)
(2.9 1.10398e-07 0)
(2.9 2.05652e-07 0)
(2.9 1.78319e-07 0)
(2.9 9.9873e-08 0)
(2.9 1.48374e-07 0)
(2.9 1.75981e-07 0)
(2.9 1.76357e-07 0)
(2.9 1.03872e-07 0)
(2.9 1.10437e-07 0)
(2.9 -6.85373e-08 0)
(2.9 -1.36227e-07 0)
(2.9 -1.55938e-07 0)
(2.9 1.20851e-08 0)
(2.9 -9.0366e-09 0)
(2.9 3.79099e-09 0)
(2.9 -9.59058e-08 0)
(2.9 -1.02068e-07 0)
(2.9 -1.02822e-07 0)
(2.9 -1.35232e-08 0)
(2.9 6.88668e-08 0)
(2.9 1.32774e-07 0)
(2.9 2.22223e-07 0)
(2.9 1.52755e-07 0)
(2.9 8.90833e-08 0)
(2.9 -3.62719e-08 0)
(2.9 -1.03394e-07 0)
(2.9 -3.83705e-08 0)
(2.9 9.17155e-08 0)
(2.9 1.43788e-07 0)
(2.9 1.51308e-07 0)
(2.9 7.26069e-08 0)
(2.9 6.202e-08 0)
(2.9 3.6362e-08 0)
(2.9 6.00586e-08 0)
(2.9 1.16525e-07 0)
(2.9 1.3249e-07 0)
(2.9 1.61507e-07 0)
(2.9 1.99065e-07 0)
(2.9 1.25706e-07 0)
(2.9 1.11388e-07 0)
(2.9 1.19185e-07 0)
(2.9 1.50868e-07 0)
(2.9 1.40965e-07 0)
(2.9 8.3683e-08 0)
(2.9 6.28481e-08 0)
(2.9 9.09823e-08 0)
(2.9 1.67665e-07 0)
(2.9 1.97052e-07 0)
(2.9 2.5172e-07 0)
(2.9 1.86701e-07 0)
(2.9 9.7413e-08 0)
(2.9 1.26479e-07 0)
(2.9 8.31098e-08 0)
(2.9 2.62125e-08 0)
(2.9 5.48175e-08 0)
(2.9 -3.63077e-08 0)
(2.9 1.07341e-08 0)
(2.9 1.50134e-07 0)
(2.9 1.51246e-07 0)
(2.9 1.30607e-07 0)
(2.9 1.44955e-07 0)
(2.9 2.02773e-07 0)
(2.9 1.27985e-07 0)
(2.9 8.1908e-08 0)
(2.9 8.69523e-08 0)
(2.9 1.89049e-07 0)
(2.9 1.48905e-07 0)
(2.9 7.56188e-08 0)
(2.9 8.22491e-08 0)
(2.9 -9.20014e-08 0)
(2.9 -1.42443e-07 0)
(2.9 -1.34485e-07 0)
(2.9 -6.41477e-09 0)
(2.9 1.94126e-08 0)
(2.9 -2.35543e-08 0)
(2.9 -1.36315e-07 0)
(2.9 -1.39414e-07 0)
(2.9 -1.32237e-07 0)
(2.9 -1.96295e-08 0)
(2.9 3.64237e-08 0)
(2.9 1.62526e-07 0)
(2.9 2.26331e-07 0)
(2.9 1.22345e-07 0)
(2.9 8.95968e-08 0)
(2.9 -7.94289e-08 0)
(2.9 -1.45608e-07 0)
(2.9 -6.99427e-08 0)
(2.9 1.47895e-07 0)
(2.9 1.93206e-07 0)
(2.9 1.14221e-07 0)
(2.9 2.77513e-08 0)
(2.9 -1.4562e-08 0)
(2.9 4.41749e-08 0)
(2.9 3.03351e-08 0)
(2.9 9.95662e-08 0)
(2.9 1.22665e-07 0)
(2.9 1.30564e-07 0)
(2.9 1.57436e-07 0)
(2.9 1.26507e-07 0)
(2.9 1.59268e-07 0)
(2.9 1.12771e-07 0)
(2.9 1.07372e-07 0)
(2.9 9.20927e-08 0)
(2.9 3.52745e-08 0)
(2.9 2.42428e-08 0)
(2.9 6.6607e-08 0)
(2.9 1.18127e-07 0)
(2.9 1.69257e-07 0)
(2.9 1.89251e-07 0)
(2.9 1.31627e-07 0)
(2.9 7.36598e-08 0)
(2.9 3.11359e-08 0)
(2.9 7.52924e-08 0)
(2.9 6.81208e-08 0)
(2.9 8.44969e-08 0)
(2.9 4.24724e-08 0)
(2.9 8.68547e-08 0)
(2.9 9.47609e-08 0)
(2.9 1.02547e-07 0)
(2.9 6.89701e-08 0)
(2.9 5.78508e-08 0)
(2.9 8.21828e-08 0)
(2.9 9.01368e-08 0)
(2.9 6.04739e-08 0)
(2.9 7.68535e-08 0)
(2.9 9.85166e-08 0)
(2.9 6.20535e-08 0)
(2.9 8.80191e-08 0)
(2.9 9.15624e-08 0)
(2.9 -4.99578e-08 0)
(2.9 -4.96467e-08 0)
(2.9 -4.88129e-08 0)
(2.9 -1.44238e-08 0)
(2.9 -2.78348e-08 0)
(2.9 -1.07212e-07 0)
(2.9 -1.30305e-07 0)
(2.9 -1.18266e-07 0)
(2.9 -7.01859e-08 0)
(2.9 -5.14667e-08 0)
(2.9 -1.7234e-08 0)
(2.9 8.84678e-08 0)
(2.9 1.34645e-07 0)
(2.9 7.70446e-08 0)
(2.9 1.90796e-08 0)
(2.9 -1.18509e-07 0)
(2.9 -1.57733e-07 0)
(2.9 -2.51523e-08 0)
(2.9 8.91075e-08 0)
(2.9 1.39292e-07 0)
(2.9 5.96447e-08 0)
(2.9 -2.19365e-08 0)
(2.9 -5.6463e-08 0)
(2.9 7.15385e-08 0)
(2.9 8.0613e-08 0)
(2.9 9.72148e-08 0)
(2.9 1.13511e-07 0)
(2.9 8.40416e-08 0)
(2.9 1.26354e-07 0)
(2.9 1.10052e-07 0)
(2.9 1.17002e-07 0)
(2.9 7.59856e-08 0)
(2.9 4.90134e-08 0)
(2.9 3.28842e-08 0)
(2.9 -6.24756e-10 0)
(2.9 3.04888e-09 0)
(2.9 2.50656e-08 0)
(2.9 6.70921e-08 0)
(2.9 1.35922e-07 0)
(2.9 1.21202e-07 0)
(2.9 7.58421e-08 0)
(2.9 2.74135e-08 0)
(2.9 1.90744e-08 0)
(2.9 9.27767e-08 0)
(2.9 8.68403e-08 0)
(2.9 4.23815e-08 0)
(2.9 1.14361e-07 0)
(2.9 1.41366e-07 0)
(2.9 1.11342e-07 0)
(2.9 7.19337e-08 0)
(2.9 4.37583e-08 0)
(2.9 8.8236e-08 0)
(2.9 7.61639e-08 0)
(2.9 8.37713e-08 0)
(2.9 1.63258e-08 0)
(2.9 3.95648e-08 0)
(2.9 7.55357e-09 0)
(2.9 3.48112e-08 0)
(2.9 1.16132e-07 0)
(2.9 1.3064e-07 0)
(2.9 5.98104e-08 0)
(2.9 3.68106e-08 0)
(2.9 2.37626e-09 0)
(2.9 -5.71685e-09 0)
(2.9 -3.45143e-08 0)
(2.9 -6.88588e-08 0)
(2.9 -7.93561e-08 0)
(2.9 -1.0422e-07 0)
(2.9 -4.52158e-08 0)
(2.9 -1.0322e-07 0)
(2.9 -5.86408e-08 0)
(2.9 3.02526e-08 0)
(2.9 6.28406e-08 0)
(2.9 2.88606e-08 0)
(2.9 -3.00529e-08 0)
(2.9 -1.31499e-07 0)
(2.9 -1.55099e-07 0)
(2.9 -9.64501e-11 0)
(2.9 1.99666e-08 0)
(2.9 1.6844e-08 0)
(2.9 -3.10697e-10 0)
(2.9 -4.38033e-08 0)
(2.9 -6.68107e-08 0)
(2.9 1.20097e-08 0)
(2.9 1.22138e-07 0)
(2.9 9.49201e-08 0)
(2.9 1.08666e-07 0)
(2.9 1.18182e-07 0)
(2.9 1.07926e-07 0)
(2.9 8.9753e-08 0)
(2.9 7.55038e-08 0)
(2.9 2.40738e-08 0)
(2.9 -4.42948e-10 0)
(2.9 -1.78346e-08 0)
(2.9 -1.89802e-08 0)
(2.9 -1.7234e-08 0)
(2.9 -1.30039e-08 0)
(2.9 4.07836e-08 0)
(2.9 1.01021e-07 0)
(2.9 5.90937e-08 0)
(2.9 2.65288e-08 0)
(2.9 -1.39189e-08 0)
(2.9 2.07681e-08 0)
(2.9 3.09306e-08 0)
(2.9 1.9162e-08 0)
(2.9 2.44098e-08 0)
(2.9 7.76476e-08 0)
(2.9 5.19852e-08 0)
(2.9 1.11632e-07 0)
(2.9 6.35114e-08 0)
(2.9 3.34613e-08 0)
(2.9 1.29018e-07 0)
(2.9 7.04136e-08 0)
(2.9 9.45748e-09 0)
(2.9 -4.15856e-08 0)
(2.9 -8.54909e-08 0)
(2.9 -8.76217e-08 0)
(2.9 1.47924e-08 0)
(2.9 6.10435e-08 0)
(2.9 7.45327e-08 0)
(2.9 6.75655e-08 0)
(2.9 3.15144e-08 0)
(2.9 4.57534e-08 0)
(2.9 2.77724e-08 0)
(2.9 6.06322e-08 0)
(2.9 7.08124e-08 0)
(2.9 -1.26841e-08 0)
(2.9 -4.4355e-08 0)
(2.9 -1.19196e-07 0)
(2.9 -1.23237e-07 0)
(2.9 -7.96606e-08 0)
(2.9 -2.92948e-08 0)
(2.9 -1.06921e-08 0)
(2.9 -2.55358e-08 0)
(2.9 -7.95858e-08 0)
(2.9 -1.08103e-07 0)
(2.9 -1.02548e-07 0)
(2.9 -8.77097e-08 0)
(2.9 -2.83431e-08 0)
(2.9 -1.14297e-08 0)
(2.9 -4.04293e-08 0)
(2.9 -5.02514e-08 0)
(2.9 -8.16241e-08 0)
(2.9 2.95138e-08 0)
(2.9 8.28606e-08 0)
(2.9 8.14895e-08 0)
(2.9 9.9375e-08 0)
(2.9 1.51608e-07 0)
(2.9 9.26272e-08 0)
(2.9 6.71326e-08 0)
(2.9 3.5698e-08 0)
(2.9 -7.72921e-09 0)
(2.9 -3.85208e-08 0)
(2.9 -5.42993e-08 0)
(2.9 -3.17458e-08 0)
(2.9 -4.19507e-08 0)
(2.9 -2.0897e-08 0)
(2.9 3.13195e-08 0)
(2.9 8.21534e-08 0)
(2.9 2.28031e-08 0)
(2.9 -2.05873e-09 0)
(2.9 -6.17218e-08 0)
(2.9 -5.07559e-08 0)
(2.9 -2.60932e-08 0)
(2.9 -1.37558e-08 0)
(2.9 2.3167e-08 0)
(2.9 3.11667e-08 0)
(2.9 2.73467e-08 0)
(2.9 3.99381e-08 0)
(2.9 6.53018e-08 0)
(2.9 8.65743e-08 0)
(2.9 6.52422e-08 0)
(2.9 -1.11228e-08 0)
(2.9 -2.25279e-08 0)
(2.9 -9.03162e-08 0)
(2.9 -9.78085e-08 0)
(2.9 -1.70561e-07 0)
(2.9 -5.52951e-08 0)
(2.9 1.24829e-08 0)
(2.9 3.53436e-08 0)
(2.9 1.69372e-08 0)
(2.9 4.57806e-08 0)
(2.9 1.13459e-07 0)
(2.9 7.5729e-08 0)
(2.9 1.40048e-07 0)
(2.9 1.11323e-07 0)
(2.9 4.62464e-09 0)
(2.9 5.13763e-10 0)
(2.9 -5.64113e-08 0)
(2.9 -1.01448e-07 0)
(2.9 -9.45169e-08 0)
(2.9 -1.21098e-07 0)
(2.9 -7.84346e-08 0)
(2.9 -6.93692e-08 0)
(2.9 -1.239e-07 0)
(2.9 -9.43929e-08 0)
(2.9 -1.16734e-07 0)
(2.9 -8.0196e-08 0)
(2.9 -6.98818e-08 0)
(2.9 -4.39274e-08 0)
(2.9 -7.36379e-08 0)
(2.9 -4.98242e-08 0)
(2.9 -2.28023e-08 0)
(2.9 5.20813e-08 0)
(2.9 5.92552e-08 0)
(2.9 6.47293e-08 0)
(2.9 7.99983e-08 0)
(2.9 1.03266e-07 0)
(2.9 7.13632e-08 0)
(2.9 4.48765e-08 0)
(2.9 1.40697e-08 0)
(2.9 -3.33461e-08 0)
(2.9 -7.3801e-08 0)
(2.9 -6.84086e-08 0)
(2.9 -3.55074e-08 0)
(2.9 -6.4615e-08 0)
(2.9 -4.91997e-09 0)
(2.9 2.38095e-08 0)
(2.9 6.31917e-09 0)
(2.9 1.30478e-08 0)
(2.9 -1.54787e-08 0)
(2.9 -1.17314e-07 0)
(2.9 -1.05183e-07 0)
(2.9 -7.41021e-08 0)
(2.9 -3.22987e-08 0)
(2.9 2.47067e-08 0)
(2.9 -2.92732e-08 0)
(2.9 1.37209e-08 0)
(2.9 -2.0209e-08 0)
(2.9 5.52476e-08 0)
(2.9 8.99689e-08 0)
(2.9 3.15128e-09 0)
(2.9 3.49298e-08 0)
(2.9 -3.30338e-08 0)
(2.9 -4.61578e-08 0)
(2.9 -8.6944e-08 0)
(2.9 -2.28681e-07 0)
(2.9 -8.42675e-08 0)
(2.9 -2.58135e-08 0)
(2.9 2.55149e-08 0)
(2.9 9.61692e-08 0)
(2.9 6.50152e-08 0)
(2.9 1.31345e-07 0)
(2.9 1.18221e-07 0)
(2.9 1.07065e-07 0)
(2.9 1.18981e-07 0)
(2.9 6.20577e-08 0)
(2.9 4.86434e-08 0)
(2.9 2.91408e-08 0)
(2.9 -7.23047e-08 0)
(2.9 -1.1436e-07 0)
(2.9 -1.1903e-07 0)
(2.9 -1.15052e-07 0)
(2.9 -9.54313e-08 0)
(2.9 -9.73946e-08 0)
(2.9 -1.33084e-07 0)
(2.9 -1.78048e-07 0)
(2.9 -6.8498e-08 0)
(2.9 -1.30118e-07 0)
(2.9 -1.56847e-07 0)
(2.9 -1.11661e-07 0)
(2.9 -4.51168e-08 0)
(2.9 1.81702e-08 0)
(2.9 -1.27244e-08 0)
(2.9 3.74494e-08 0)
(2.9 4.80667e-08 0)
(2.9 5.96577e-08 0)
(2.9 7.01015e-08 0)
(2.9 3.95993e-08 0)
(2.9 2.31149e-08 0)
(2.9 -1.18123e-08 0)
(2.9 -6.41397e-08 0)
(2.9 -9.62267e-08 0)
(2.9 -7.25931e-08 0)
(2.9 -2.51662e-08 0)
(2.9 5.07013e-09 0)
(2.9 2.52037e-08 0)
(2.9 3.09902e-08 0)
(2.9 5.62933e-08 0)
(2.9 2.62937e-08 0)
(2.9 -2.29165e-08 0)
(2.9 -9.69946e-08 0)
(2.9 -1.39807e-07 0)
(2.9 -2.32134e-08 0)
(2.9 2.88397e-08 0)
(2.9 2.36746e-08 0)
(2.9 -1.92934e-08 0)
(2.9 -6.74902e-08 0)
(2.9 -7.17349e-08 0)
(2.9 2.65014e-08 0)
(2.9 7.01308e-08 0)
(2.9 4.22369e-08 0)
(2.9 1.05988e-07 0)
(2.9 1.8422e-08 0)
(2.9 -1.43438e-08 0)
(2.9 -1.23838e-07 0)
(2.9 -2.05082e-07 0)
(2.9 -7.43347e-08 0)
(2.9 4.38703e-08 0)
(2.9 1.23466e-07 0)
(2.9 1.97876e-07 0)
(2.9 1.55827e-07 0)
(2.9 1.76953e-07 0)
(2.9 1.39485e-07 0)
(2.9 1.17367e-07 0)
(2.9 1.17495e-07 0)
(2.9 8.44444e-08 0)
(2.9 9.03072e-08 0)
(2.9 1.81408e-08 0)
(2.9 -5.70908e-08 0)
(2.9 -1.36386e-07 0)
(2.9 -8.03337e-08 0)
(2.9 -1.40448e-07 0)
(2.9 -1.39802e-07 0)
(2.9 -1.1781e-07 0)
(2.9 -1.94707e-07 0)
(2.9 -1.56702e-07 0)
(2.9 -1.3713e-07 0)
(2.9 -1.71479e-07 0)
(2.9 -1.7604e-07 0)
(2.9 -1.24244e-07 0)
(2.9 -3.19223e-08 0)
(2.9 5.93637e-08 0)
(2.9 7.96027e-09 0)
(2.9 1.27968e-08 0)
(2.9 2.68446e-08 0)
(2.9 2.81849e-08 0)
(2.9 1.15438e-08 0)
(2.9 -1.10232e-08 0)
(2.9 -1.32721e-08 0)
(2.9 -4.73619e-08 0)
(2.9 -7.40562e-08 0)
(2.9 -1.24623e-07 0)
(2.9 -8.99812e-08 0)
(2.9 -2.18626e-08 0)
(2.9 7.16381e-08 0)
(2.9 4.13829e-08 0)
(2.9 1.17862e-08 0)
(2.9 1.15098e-07 0)
(2.9 1.74841e-08 0)
(2.9 -5.5709e-08 0)
(2.9 -6.48644e-08 0)
(2.9 -9.45112e-08 0)
(2.9 1.86475e-08 0)
(2.9 6.66904e-08 0)
(2.9 -2.32114e-08 0)
(2.9 -8.79886e-09 0)
(2.9 -1.13759e-07 0)
(2.9 -9.80939e-08 0)
(2.9 -6.74492e-09 0)
(2.9 7.42706e-08 0)
(2.9 9.78496e-08 0)
(2.9 7.36077e-08 0)
(2.9 2.69726e-08 0)
(2.9 -9.80349e-08 0)
(2.9 -1.16424e-07 0)
(2.9 -1.10766e-07 0)
(2.9 -3.85596e-08 0)
(2.9 1.25481e-07 0)
(2.9 2.11769e-07 0)
(2.9 1.65547e-07 0)
(2.9 1.94007e-07 0)
(2.9 1.91649e-07 0)
(2.9 1.04069e-07 0)
(2.9 1.03427e-07 0)
(2.9 3.66863e-08 0)
(2.9 -2.08375e-08 0)
(2.9 4.51532e-08 0)
(2.9 -3.72031e-09 0)
(2.9 -4.8068e-08 0)
(2.9 -5.88262e-08 0)
(2.9 -9.2203e-08 0)
(2.9 -1.68766e-07 0)
(2.9 -2.03633e-07 0)
(2.9 -2.16567e-07 0)
(2.9 -2.28927e-07 0)
(2.9 -1.08487e-07 0)
(2.9 -1.76167e-07 0)
(2.9 -1.8077e-07 0)
(2.9 -8.40636e-08 0)
(2.9 -1.01889e-07 0)
(2.9 -9.89194e-09 0)
(2.9 1.1571e-07 0)
(2.9 2.35377e-08 0)
(2.9 -1.81063e-08 0)
(2.9 -1.53066e-08 0)
(2.9 -4.33551e-08 0)
(2.9 -7.62997e-08 0)
(2.9 -6.65069e-08 0)
(2.9 -5.3784e-08 0)
(2.9 -6.13161e-08 0)
(2.9 -6.03083e-08 0)
(2.9 -8.52177e-08 0)
(2.9 -1.11617e-07 0)
(2.9 -3.18886e-08 0)
(2.9 3.19099e-08 0)
(2.9 1.62478e-08 0)
(2.9 3.75361e-08 0)
(2.9 7.66167e-08 0)
(2.9 -4.46274e-08 0)
(2.9 -9.11264e-08 0)
(2.9 -8.02875e-08 0)
(2.9 -8.68037e-08 0)
(2.9 -2.70979e-08 0)
(2.9 1.53516e-08 0)
(2.9 -1.09906e-08 0)
(2.9 -3.97639e-08 0)
(2.9 -1.24653e-07 0)
(2.9 -1.08074e-07 0)
(2.9 -2.10465e-08 0)
(2.9 3.89157e-08 0)
(2.9 7.20983e-08 0)
(2.9 2.6411e-08 0)
(2.9 2.70052e-08 0)
(2.9 -7.42102e-08 0)
(2.9 -6.54847e-08 0)
(2.9 -1.38131e-08 0)
(2.9 -1.8617e-08 0)
(2.9 1.16606e-07 0)
(2.9 1.74664e-07 0)
(2.9 1.577e-07 0)
(2.9 1.94019e-07 0)
(2.9 1.73625e-07 0)
(2.9 3.72713e-08 0)
(2.9 3.04139e-08 0)
(2.9 -3.90656e-08 0)
(2.9 -3.10712e-08 0)
(2.9 3.44169e-08 0)
(2.9 6.81265e-08 0)
(2.9 5.48617e-08 0)
(2.9 3.20043e-08 0)
(2.9 -6.63916e-08 0)
(2.9 -1.78628e-07 0)
(2.9 -2.45026e-07 0)
(2.9 -2.3233e-07 0)
(2.9 -2.33757e-07 0)
(2.9 -1.12618e-07 0)
(2.9 -1.94058e-07 0)
(2.9 -1.71723e-07 0)
(2.9 -2.82444e-08 0)
(2.9 -7.37233e-08 0)
(2.9 7.37382e-09 0)
(2.9 9.20861e-08 0)
(2.9 -5.49306e-08 0)
(2.9 -5.39969e-08 0)
(2.9 -7.70487e-08 0)
(2.9 -1.23416e-07 0)
(2.9 -1.33678e-07 0)
(2.9 -9.93795e-08 0)
(2.9 -8.16137e-08 0)
(2.9 -7.00294e-08 0)
(2.9 -5.9774e-08 0)
(2.9 -4.09294e-08 0)
(2.9 -1.2813e-07 0)
(2.9 -4.38791e-08 0)
(2.9 -2.06441e-08 0)
(2.9 -2.71541e-08 0)
(2.9 5.67601e-08 0)
(2.9 3.11043e-08 0)
(2.9 -2.64e-08 0)
(2.9 -7.46121e-08 0)
(2.9 -4.83798e-08 0)
(2.9 -8.10065e-08 0)
(2.9 -2.64299e-08 0)
(2.9 -3.56207e-09 0)
(2.9 3.52945e-08 0)
(2.9 -1.5792e-08 0)
(2.9 -3.46651e-08 0)
(2.9 -2.547e-08 0)
(2.9 5.67355e-09 0)
(2.9 4.96145e-08 0)
(2.9 6.10018e-08 0)
(2.9 7.1586e-08 0)
(2.9 5.07772e-08 0)
(2.9 -4.89997e-09 0)
(2.9 1.65835e-08 0)
(2.9 8.10833e-08 0)
(2.9 6.71371e-08 0)
(2.9 1.02492e-07 0)
(2.9 8.56342e-08 0)
(2.9 1.28805e-07 0)
(2.9 1.72947e-07 0)
(2.9 1.75003e-07 0)
(2.9 5.65364e-08 0)
(2.9 -2.36942e-08 0)
(2.9 -1.15889e-07 0)
(2.9 -1.95534e-08 0)
(2.9 3.71697e-08 0)
(2.9 1.41508e-07 0)
(2.9 1.46924e-07 0)
(2.9 3.2578e-08 0)
(2.9 -1.662e-08 0)
(2.9 -6.94729e-08 0)
(2.9 -1.44108e-07 0)
(2.9 -1.57215e-07 0)
(2.9 -1.49322e-07 0)
(2.9 -1.54806e-07 0)
(2.9 -8.09894e-08 0)
(2.9 -5.08775e-08 0)
(2.9 -5.69701e-09 0)
(2.9 2.58391e-08 0)
(2.9 1.18674e-08 0)
(2.9 8.45337e-08 0)
(2.9 -3.59523e-08 0)
(2.9 -7.54078e-08 0)
(2.9 -1.15897e-07 0)
(2.9 -1.48646e-07 0)
(2.9 -1.46801e-07 0)
(2.9 -1.21663e-07 0)
(2.9 -1.15693e-07 0)
(2.9 -9.37477e-08 0)
(2.9 -8.03596e-08 0)
(2.9 -4.37303e-08 0)
(2.9 -6.42738e-08 0)
(2.9 -5.08256e-08 0)
(2.9 -5.58482e-08 0)
(2.9 -6.1433e-08 0)
(2.9 -1.20678e-08 0)
(2.9 -1.71408e-08 0)
(2.9 1.84378e-08 0)
(2.9 -2.52558e-08 0)
(2.9 1.73536e-08 0)
(2.9 1.82601e-08 0)
(2.9 1.0664e-08 0)
(2.9 7.39912e-09 0)
(2.9 2.14843e-08 0)
(2.9 -2.69637e-09 0)
(2.9 2.43597e-08 0)
(2.9 1.90727e-08 0)
(2.9 4.08811e-08 0)
(2.9 7.36283e-08 0)
(2.9 3.93796e-08 0)
(2.9 1.09435e-07 0)
(2.9 2.28292e-08 0)
(2.9 -1.38819e-08 0)
(2.9 6.26215e-08 0)
(2.9 1.51459e-07 0)
(2.9 1.22814e-07 0)
(2.9 4.72805e-08 0)
(2.9 -1.5655e-08 0)
(2.9 5.09905e-09 0)
(2.9 5.68397e-08 0)
(2.9 8.92873e-08 0)
(2.9 5.58101e-08 0)
(2.9 -7.61634e-08 0)
(2.9 -1.78893e-07 0)
(2.9 -8.3469e-08 0)
(2.9 1.22846e-08 0)
(2.9 1.13409e-07 0)
(2.9 1.43348e-07 0)
(2.9 1.15585e-07 0)
(2.9 2.96053e-08 0)
(2.9 3.59526e-08 0)
(2.9 -2.33643e-08 0)
(2.9 -6.97682e-08 0)
(2.9 -7.26316e-08 0)
(2.9 -7.53172e-08 0)
(2.9 7.40869e-08 0)
(2.9 5.46164e-08 0)
(2.9 9.85347e-08 0)
(2.9 9.63418e-08 0)
(2.9 7.67363e-08 0)
(2.9 8.47979e-08 0)
(2.9 1.28047e-09 0)
(2.9 -8.27212e-08 0)
(2.9 -1.10422e-07 0)
(2.9 -1.48973e-07 0)
(2.9 -1.53076e-07 0)
(2.9 -1.58652e-07 0)
(2.9 -1.46005e-07 0)
(2.9 -1.05875e-07 0)
(2.9 -9.8684e-08 0)
(2.9 -2.7806e-08 0)
(2.9 -1.67183e-08 0)
(2.9 -4.8011e-08 0)
(2.9 -7.04764e-08 0)
(2.9 -8.90376e-08 0)
(2.9 -6.79865e-08 0)
(2.9 -4.39017e-08 0)
(2.9 7.32313e-09 0)
(2.9 1.90596e-08 0)
(2.9 6.47642e-08 0)
(2.9 1.03233e-07 0)
(2.9 4.86481e-08 0)
(2.9 1.96767e-08 0)
(2.9 1.18501e-08 0)
(2.9 -7.33397e-09 0)
(2.9 5.82826e-08 0)
(2.9 2.5206e-08 0)
(2.9 6.4651e-08 0)
(2.9 9.96848e-08 0)
(2.9 6.86073e-08 0)
(2.9 8.10239e-08 0)
(2.9 2.23599e-08 0)
(2.9 4.39861e-08 0)
(2.9 3.56754e-08 0)
(2.9 1.97435e-07 0)
(2.9 4.58679e-08 0)
(2.9 -2.36291e-08 0)
(2.9 -8.91201e-08 0)
(2.9 -8.92037e-08 0)
(2.9 -3.40495e-08 0)
(2.9 1.24955e-08 0)
(2.9 -2.59131e-08 0)
(2.9 -8.54916e-08 0)
(2.9 -1.32044e-07 0)
(2.9 -4.74767e-08 0)
(2.9 -4.721e-08 0)
(2.9 7.65944e-08 0)
(2.9 1.34371e-07 0)
(2.9 1.93371e-07 0)
(2.9 1.17506e-07 0)
(2.9 1.4896e-08 0)
(2.9 -2.19111e-08 0)
(2.9 -3.46739e-08 0)
(2.9 3.48087e-09 0)
(2.9 8.58059e-08 0)
(2.9 1.39916e-07 0)
(2.9 9.10246e-08 0)
(2.9 1.46817e-07 0)
(2.9 3.9785e-08 0)
(2.9 1.16182e-07 0)
(2.9 7.85197e-08 0)
(2.9 -4.89174e-08 0)
(2.9 -1.01367e-07 0)
(2.9 -1.12127e-07 0)
(2.9 -1.65474e-07 0)
(2.9 -1.6528e-07 0)
(2.9 -2.03213e-07 0)
(2.9 -1.43525e-07 0)
(2.9 -8.26808e-08 0)
(2.9 -2.61e-08 0)
(2.9 -1.35856e-08 0)
(2.9 -6.53696e-08 0)
(2.9 -4.24408e-08 0)
(2.9 -7.46776e-08 0)
(2.9 -1.05582e-07 0)
(2.9 -9.03613e-08 0)
(2.9 -3.78788e-08 0)
(2.9 2.45318e-08 0)
(2.9 2.90519e-08 0)
(2.9 6.86936e-08 0)
(2.9 1.97858e-07 0)
(2.9 6.36458e-08 0)
(2.9 9.13721e-09 0)
(2.9 1.50485e-08 0)
(2.9 -2.02156e-08 0)
(2.9 9.15399e-08 0)
(2.9 1.05527e-07 0)
(2.9 7.65796e-08 0)
(2.9 1.04286e-07 0)
(2.9 1.61278e-07 0)
(2.9 8.53113e-08 0)
(2.9 6.68514e-09 0)
(2.9 7.31367e-08 0)
(2.9 3.66995e-08 0)
(2.9 1.7364e-07 0)
(2.9 4.97742e-08 0)
(2.9 -5.23597e-08 0)
(2.9 -1.18703e-07 0)
(2.9 -1.26269e-07 0)
(2.9 -9.40125e-08 0)
(2.9 -1.95719e-08 0)
(2.9 -6.78908e-08 0)
(2.9 -4.89773e-08 0)
(2.9 -6.49545e-09 0)
(2.9 -8.77476e-09 0)
(2.9 -2.7619e-08 0)
(2.9 4.38414e-08 0)
(2.9 1.10222e-07 0)
(2.9 1.61834e-07 0)
(2.9 1.59786e-07 0)
(2.9 6.98444e-08 0)
(2.9 6.40896e-08 0)
(2.9 6.45101e-08 0)
(2.9 1.84212e-07 0)
(2.9 2.26398e-07 0)
(2.9 1.73343e-07 0)
(2.9 1.5199e-07 0)
(2.9 1.06048e-07 0)
(2.9 6.48463e-08 0)
(2.9 7.86332e-08 0)
(2.9 6.29384e-08 0)
(2.9 -2.87044e-08 0)
(2.9 -1.38636e-07 0)
(2.9 -1.28519e-07 0)
(2.9 -1.90432e-07 0)
(2.9 -1.82877e-07 0)
(2.9 -1.53272e-07 0)
(2.9 -1.1465e-07 0)
(2.9 -4.88775e-08 0)
(2.9 3.49806e-08 0)
(2.9 1.27555e-08 0)
(2.9 -2.72168e-08 0)
(2.9 -2.25217e-08 0)
(2.9 -5.31903e-08 0)
(2.9 -1.0371e-07 0)
(2.9 -9.9333e-08 0)
(2.9 -1.76128e-08 0)
(2.9 5.15253e-08 0)
(2.9 1.02198e-07 0)
(2.9 1.4504e-07 0)
(2.9 2.40008e-07 0)
(2.9 1.4638e-07 0)
(2.9 8.64657e-08 0)
(2.9 5.14303e-08 0)
(2.9 3.17671e-08 0)
(2.9 3.42518e-08 0)
(2.9 7.96606e-08 0)
(2.9 4.07674e-08 0)
(2.9 6.77248e-08 0)
(2.9 1.51074e-07 0)
(2.9 8.73793e-08 0)
(2.9 5.6992e-08 0)
(2.9 2.27722e-08 0)
(2.9 1.17558e-07 0)
(2.9 1.20883e-07 0)
(2.9 7.56815e-08 0)
(2.9 -3.83206e-08 0)
(2.9 -8.68481e-08 0)
(2.9 -1.18581e-07 0)
(2.9 -2.28138e-08 0)
(2.9 1.03763e-08 0)
(2.9 -2.26754e-10 0)
(2.9 -5.09101e-09 0)
(2.9 2.76517e-09 0)
(2.9 -5.51533e-08 0)
(2.9 1.59037e-08 0)
(2.9 2.62008e-08 0)
(2.9 8.0314e-08 0)
(2.9 1.13221e-07 0)
(2.9 1.09116e-07 0)
(2.9 1.28744e-07 0)
(2.9 1.46999e-07 0)
(2.9 1.43532e-07 0)
(2.9 2.69971e-07 0)
(2.9 2.22891e-07 0)
(2.9 1.68839e-07 0)
(2.9 2.0126e-07 0)
(2.9 1.00705e-07 0)
(2.9 1.08913e-07 0)
(2.9 6.44681e-08 0)
(2.9 5.05955e-08 0)
(2.9 -2.1129e-09 0)
(2.9 -9.48231e-08 0)
(2.9 -1.21616e-07 0)
(2.9 -1.21502e-07 0)
(2.9 -1.25796e-07 0)
(2.9 -8.24607e-08 0)
(2.9 -8.77565e-08 0)
(2.9 -4.91824e-08 0)
(2.9 5.03245e-09 0)
(2.9 3.87903e-08 0)
(2.9 9.36357e-08 0)
(2.9 1.75065e-08 0)
(2.9 -2.3664e-09 0)
(2.9 -1.3137e-08 0)
(2.9 -1.82723e-08 0)
(2.9 -1.06808e-09 0)
(2.9 6.80398e-08 0)
(2.9 1.65792e-07 0)
(2.9 2.09955e-07 0)
(2.9 2.10356e-07 0)
(2.9 2.09918e-07 0)
(2.9 1.63563e-07 0)
(2.9 8.32965e-08 0)
(2.9 6.30797e-08 0)
(2.9 -3.00449e-08 0)
(2.9 -2.37254e-08 0)
(2.9 -2.53322e-08 0)
(2.9 3.52309e-09 0)
(2.9 4.83895e-08 0)
(2.9 6.84423e-08 0)
(2.9 1.07716e-07 0)
(2.9 8.71349e-08 0)
(2.9 1.56378e-07 0)
(2.9 1.14793e-07 0)
(2.9 3.36719e-08 0)
(2.9 7.08012e-09 0)
(2.9 -1.64236e-08 0)
(2.9 -1.84902e-08 0)
(2.9 7.80022e-08 0)
(2.9 5.62228e-08 0)
(2.9 6.42855e-08 0)
(2.9 4.46032e-08 0)
(2.9 1.92751e-08 0)
(2.9 2.26762e-08 0)
(2.9 1.69334e-08 0)
(2.9 2.26465e-08 0)
(2.9 5.425e-08 0)
(2.9 7.39514e-08 0)
(2.9 8.27211e-08 0)
(2.9 1.08487e-07 0)
(2.9 1.44235e-07 0)
(2.9 2.04039e-07 0)
(2.9 2.54331e-07 0)
(2.9 1.85032e-07 0)
(2.9 1.58454e-07 0)
(2.9 2.0033e-07 0)
(2.9 1.09923e-07 0)
(2.9 7.72202e-08 0)
(2.9 5.85002e-08 0)
(2.9 4.47117e-08 0)
(2.9 -6.15344e-08 0)
(2.9 -5.44702e-08 0)
(2.9 -1.05222e-07 0)
(2.9 -5.31067e-08 0)
(2.9 -7.08681e-08 0)
(2.9 -6.94187e-08 0)
(2.9 -9.98579e-08 0)
(2.9 -8.64037e-08 0)
(2.9 -5.62579e-09 0)
(2.9 5.42212e-08 0)
(2.9 1.12227e-07 0)
(2.9 4.66312e-08 0)
(2.9 3.7289e-08 0)
(2.9 5.38704e-08 0)
(2.9 6.32166e-08 0)
(2.9 -1.73172e-08 0)
(2.9 6.39328e-08 0)
(2.9 1.3393e-07 0)
(2.9 1.76154e-07 0)
(2.9 1.69144e-07 0)
(2.9 1.72889e-07 0)
(2.9 1.41169e-07 0)
(2.9 8.59935e-08 0)
(2.9 -4.60385e-10 0)
(2.9 -8.75314e-08 0)
(2.9 -8.29762e-08 0)
(2.9 -6.921e-08 0)
(2.9 -6.78748e-08 0)
(2.9 -3.05259e-08 0)
(2.9 4.02876e-08 0)
(2.9 7.1679e-08 0)
(2.9 1.45377e-07 0)
(2.9 1.34049e-07 0)
(2.9 1.21606e-07 0)
(2.9 7.62881e-08 0)
(2.9 5.09829e-08 0)
(2.9 3.78792e-08 0)
(2.9 1.42425e-07 0)
(2.9 8.57201e-08 0)
(2.9 8.26278e-08 0)
(2.9 4.35672e-08 0)
(2.9 1.00839e-07 0)
(2.9 1.27084e-07 0)
(2.9 1.11481e-07 0)
(2.9 3.13982e-08 0)
(2.9 2.97537e-08 0)
(2.9 4.03358e-08 0)
(2.9 5.53215e-08 0)
(2.9 7.79655e-08 0)
(2.9 9.91458e-08 0)
(2.9 1.44389e-07 0)
(2.9 2.59248e-07 0)
(2.9 2.31148e-07 0)
(2.9 2.43781e-07 0)
(2.9 1.57211e-07 0)
(2.9 1.49353e-07 0)
(2.9 1.21221e-07 0)
(2.9 4.09082e-08 0)
(2.9 5.9748e-08 0)
(2.9 4.45539e-08 0)
(2.9 -3.68028e-08 0)
(2.9 -8.48261e-08 0)
(2.9 -8.10578e-08 0)
(2.9 -6.28767e-08 0)
(2.9 -8.35024e-08 0)
(2.9 -4.42031e-08 0)
(2.9 -4.22788e-08 0)
(2.9 -2.83695e-08 0)
(2.9 7.95941e-09 0)
(2.9 4.49821e-08 0)
(2.9 2.9005e-08 0)
(2.9 4.86025e-08 0)
(2.9 4.64399e-08 0)
(2.9 1.68059e-08 0)
(2.9 4.83775e-08 0)
(2.9 2.2522e-08 0)
(2.9 5.38286e-08 0)
(2.9 1.07795e-07 0)
(2.9 1.46683e-07 0)
(2.9 1.12365e-07 0)
(2.9 1.41822e-07 0)
(2.9 1.20333e-07 0)
(2.9 8.92955e-08 0)
(2.9 5.52523e-08 0)
(2.9 -1.06428e-08 0)
(2.9 -9.32788e-08 0)
(2.9 -8.01991e-08 0)
(2.9 -1.09144e-07 0)
(2.9 -6.22524e-08 0)
(2.9 3.54701e-08 0)
(2.9 1.12682e-07 0)
(2.9 8.96419e-08 0)
(2.9 7.20836e-08 0)
(2.9 9.61305e-08 0)
(2.9 6.78753e-08 0)
(2.9 6.39208e-08 0)
(2.9 1.29873e-07 0)
(2.9 1.79219e-07 0)
(2.9 1.5487e-07 0)
(2.9 1.15209e-07 0)
(2.9 1.21666e-07 0)
(2.9 1.40744e-07 0)
(2.9 1.94133e-07 0)
(2.9 6.28171e-08 0)
(2.9 1.21544e-09 0)
(2.9 3.60794e-08 0)
(2.9 3.64277e-08 0)
(2.9 5.09302e-08 0)
(2.9 8.24591e-08 0)
(2.9 7.84232e-08 0)
(2.9 1.20203e-07 0)
(2.9 2.10919e-07 0)
(2.9 1.60712e-07 0)
(2.9 2.16401e-07 0)
(2.9 1.407e-07 0)
(2.9 1.07249e-07 0)
(2.9 1.371e-07 0)
(2.9 7.35842e-08 0)
(2.9 7.12383e-08 0)
(2.9 4.79013e-08 0)
(2.9 1.63164e-08 0)
(2.9 -1.05082e-07 0)
(2.9 -3.94246e-08 0)
(2.9 -4.64856e-08 0)
(2.9 1.14021e-08 0)
(2.9 -2.58909e-08 0)
(2.9 2.97537e-08 0)
(2.9 3.75004e-08 0)
(2.9 1.24488e-08 0)
(2.9 2.55617e-08 0)
(2.9 4.63105e-08 0)
(2.9 4.67822e-08 0)
(2.9 5.65756e-08 0)
(2.9 6.6374e-08 0)
(2.9 3.58019e-08 0)
(2.9 6.42899e-08 0)
(2.9 4.42574e-08 0)
(2.9 8.55229e-08 0)
(2.9 1.25898e-07 0)
(2.9 1.37456e-07 0)
(2.9 1.21467e-07 0)
(2.9 1.02354e-07 0)
(2.9 9.49232e-08 0)
(2.9 1.37639e-07 0)
(2.9 9.72261e-08 0)
(2.9 -1.57796e-09 0)
(2.9 -5.06088e-08 0)
(2.9 -1.00211e-07 0)
(2.9 -6.2669e-08 0)
(2.9 3.36075e-08 0)
(2.9 1.32507e-07 0)
(2.9 1.04814e-07 0)
(2.9 4.9107e-08 0)
(2.9 4.94118e-08 0)
(2.9 4.31061e-08 0)
(2.9 6.07131e-08 0)
(2.9 1.73598e-07 0)
(2.9 1.8409e-07 0)
(2.9 2.00365e-07 0)
(2.9 1.36925e-07 0)
(2.9 1.84749e-07 0)
(2.9 1.09671e-07 0)
(2.9 1.46961e-07 0)
(2.9 7.3495e-08 0)
(2.9 2.20937e-08 0)
(2.9 4.45183e-08 0)
(2.9 3.68938e-08 0)
(2.9 5.14625e-08 0)
(2.9 9.24455e-08 0)
(2.9 1.39376e-07 0)
(2.9 1.57647e-07 0)
(2.9 1.59296e-07 0)
(2.9 1.29577e-07 0)
(2.9 1.23642e-07 0)
(2.9 1.06882e-07 0)
(2.9 1.4677e-07 0)
(2.9 1.57251e-07 0)
(2.9 1.82152e-07 0)
(2.9 8.74111e-08 0)
(2.9 5.13726e-08 0)
(2.9 2.9888e-09 0)
(2.9 -6.2216e-08 0)
(2.9 1.8152e-08 0)
(2.9 5.21234e-08 0)
(2.9 1.1097e-07 0)
(2.9 -2.40414e-08 0)
(2.9 5.74662e-09 0)
(2.9 2.69482e-09 0)
(2.9 -1.4057e-08 0)
(2.9 1.55407e-08 0)
(2.9 8.44577e-08 0)
(2.9 4.88595e-08 0)
(2.9 6.49746e-08 0)
(2.9 1.12598e-07 0)
(2.9 2.50808e-08 0)
(2.9 3.77775e-08 0)
(2.9 3.54033e-08 0)
(2.9 6.71047e-08 0)
(2.9 1.0661e-07 0)
(2.9 1.6384e-07 0)
(2.9 1.03893e-07 0)
(2.9 7.47213e-08 0)
(2.9 7.69563e-08 0)
(2.9 1.29147e-07 0)
(2.9 9.79165e-08 0)
(2.9 6.48249e-08 0)
(2.9 7.56517e-09 0)
(2.9 -8.52957e-08 0)
(2.9 -6.55154e-08 0)
(2.9 -3.25843e-09 0)
(2.9 5.70498e-08 0)
(2.9 1.19561e-07 0)
(2.9 1.1195e-07 0)
(2.9 2.69801e-08 0)
(2.9 5.12845e-08 0)
(2.9 4.05216e-08 0)
(2.9 1.06066e-07 0)
(2.9 1.7953e-07 0)
(2.9 1.51424e-07 0)
(2.9 1.2769e-07 0)
(2.9 1.31702e-07 0)
(2.9 1.52498e-08 0)
(2.9 4.54745e-08 0)
(2.9 8.91325e-08 0)
(2.9 1.03687e-07 0)
(2.9 4.78124e-08 0)
(2.9 3.48995e-08 0)
(2.9 4.96819e-08 0)
(2.9 9.50215e-08 0)
(2.9 1.80026e-07 0)
(2.9 1.69303e-07 0)
(2.9 9.85939e-08 0)
(2.9 1.04714e-07 0)
(2.9 6.00758e-08 0)
(2.9 5.39832e-08 0)
(2.9 1.69212e-07 0)
(2.9 1.51234e-07 0)
(2.9 1.97767e-07 0)
(2.9 8.95081e-08 0)
(2.9 5.11556e-08 0)
(2.9 -2.13182e-09 0)
(2.9 5.37681e-08 0)
(2.9 6.20192e-08 0)
(2.9 1.10123e-07 0)
(2.9 1.31035e-07 0)
(2.9 5.18424e-09 0)
(2.9 -2.68705e-08 0)
(2.9 -2.35789e-08 0)
(2.9 -5.05661e-08 0)
(2.9 1.6152e-08 0)
(2.9 5.38493e-08 0)
(2.9 4.77427e-08 0)
(2.9 6.29368e-08 0)
(2.9 8.49121e-08 0)
(2.9 -4.22839e-09 0)
(2.9 2.69561e-08 0)
(2.9 3.11196e-08 0)
(2.9 5.23636e-08 0)
(2.9 8.21508e-08 0)
(2.9 1.10648e-07 0)
(2.9 6.45762e-08 0)
(2.9 1.73149e-08 0)
(2.9 3.29991e-08 0)
(2.9 1.17968e-07 0)
(2.9 1.68156e-07 0)
(2.9 9.90688e-08 0)
(2.9 6.21764e-08 0)
(2.9 1.20345e-09 0)
(2.9 -1.08546e-07 0)
(2.9 -5.47261e-08 0)
(2.9 5.97974e-09 0)
(2.9 6.70184e-08 0)
(2.9 1.2089e-07 0)
(2.9 1.3389e-08 0)
(2.9 7.09077e-11 0)
(2.9 7.37443e-09 0)
(2.9 5.67532e-08 0)
(2.9 1.09904e-07 0)
(2.9 1.09858e-07 0)
(2.9 1.021e-07 0)
(2.9 8.64658e-08 0)
(2.9 2.82214e-08 0)
(2.9 2.01553e-09 0)
(2.9 1.67164e-08 0)
(2.9 8.32726e-08 0)
(2.9 3.07308e-08 0)
(2.9 2.63439e-08 0)
(2.9 4.26557e-08 0)
(2.9 7.89206e-08 0)
(2.9 1.16007e-07 0)
(2.9 9.62322e-08 0)
(2.9 4.50662e-08 0)
(2.9 2.94292e-08 0)
(2.9 1.79783e-08 0)
(2.9 6.00366e-08 0)
(2.9 9.80836e-08 0)
(2.9 1.11691e-07 0)
(2.9 1.33737e-07 0)
(2.9 7.58369e-08 0)
(2.9 4.622e-08 0)
(2.9 -2.42118e-09 0)
(2.9 6.00618e-08 0)
(2.9 6.10824e-08 0)
(2.9 1.35793e-07 0)
(2.9 1.26072e-07 0)
(2.9 6.08244e-08 0)
(2.9 -5.1659e-08 0)
(2.9 -2.33686e-08 0)
(2.9 9.35145e-09 0)
(2.9 3.33966e-08 0)
(2.9 3.6742e-08 0)
(2.9 4.67168e-08 0)
(2.9 6.08862e-08 0)
(2.9 6.72921e-08 0)
(2.9 2.52226e-08 0)
(2.9 1.01017e-08 0)
(2.9 2.58165e-08 0)
(2.9 4.03077e-08 0)
(2.9 5.99436e-08 0)
(2.9 6.46908e-08 0)
(2.9 4.53004e-09 0)
(2.9 -4.56952e-08 0)
(2.9 -7.31005e-09 0)
(2.9 1.00139e-07 0)
(2.9 2.09899e-07 0)
(2.9 1.78413e-07 0)
(2.9 8.58033e-08 0)
(2.9 6.34239e-08 0)
(2.9 -1.16656e-07 0)
(2.9 -7.86227e-08 0)
(2.9 -8.18099e-09 0)
(2.9 3.8548e-08 0)
(2.9 8.18792e-08 0)
(2.9 -2.62932e-09 0)
(2.9 -2.14556e-08 0)
(2.9 -1.23917e-08 0)
(2.9 3.86706e-08 0)
(2.9 7.22017e-08 0)
(2.9 8.03346e-08 0)
(2.9 7.56849e-08 0)
(2.9 6.66772e-08 0)
(2.9 8.02323e-08 0)
(2.9 -2.08547e-08 0)
(2.9 -4.27258e-08 0)
(2.9 1.16533e-08 0)
(2.9 8.43805e-09 0)
(2.9 1.55038e-08 0)
(2.9 3.20993e-08 0)
(2.9 5.59231e-08 0)
(2.9 7.18766e-08 0)
(2.9 5.77504e-08 0)
(2.9 1.666e-08 0)
(2.9 -3.5089e-09 0)
(2.9 -1.49179e-08 0)
(2.9 6.33155e-08 0)
(2.9 4.80264e-08 0)
(2.9 6.96048e-08 0)