/*--------------------------------*- C++ -*----------------------------------*\
| =========                 |                                                 |
| \\      /  F ield         | OpenFOAM: The Open Source CFD Toolbox           |
|  \\    /   O peration     | Version:  2412                                  |
|   \\  /    A nd           | Website:  www.openfoam.com                      |
|    \\/     M anipulation  |                                                 |
\*---------------------------------------------------------------------------*/
FoamFile
{
    version     2.0;
    format      ascii;
    arch        "LSB;label=32;scalar=64";
    class       volVectorField;
    location    "0.005";
    object      U;
}
// * * * * * * * * * * * * * * * * * * * * * * * * * * * * * * * * * * * * * //

dimensions      [0 1 -1 0 0 0 0];

internalField   nonuniform List<vector> 
1800
(
(2.9 1.29087e-13 0)
(2.9 2.47152e-13 0)
(2.9 3.07195e-13 0)
(2.9 4.03672e-13 0)
(2.9 2.07505e-13 0)
(2.9 1.70986e-13 0)
(2.9 1.3464e-13 0)
(2.9 1.49579e-13 0)
(2.9 1.43361e-13 0)
(2.9 7.89804e-14 0)
(2.9 -1.93839e-14 0)
(2.9 -1.67453e-14 0)
(2.9 -6.1532e-14 0)
(2.9 -2.04369e-13 0)
(2.9 -2.88466e-13 0)
(2.9 -2.54611e-13 0)
(2.9 -1.84028e-13 0)
(2.9 -1.43339e-13 0)
(2.9 -1.01184e-13 0)
(2.9 -6.17123e-14 0)
(2.9 -6.36212e-14 0)
(2.9 -5.08944e-14 0)
(2.9 -3.00827e-14 0)
(2.9 -4.94424e-14 0)
(2.9 -5.99655e-14 0)
(2.9 -1.12857e-13 0)
(2.9 -7.9874e-14 0)
(2.9 -7.98127e-14 0)
(2.9 -1.90663e-13 0)
(2.9 -2.77539e-13 0)
(2.9 -2.8555e-13 0)
(2.9 -3.5953e-13 0)
(2.9 -4.8514e-13 0)
(2.9 -4.89832e-13 0)
(2.9 -3.17124e-13 0)
(2.9 -1.31393e-13 0)
(2.9 -5.75104e-14 0)
(2.9 -1.97846e-14 0)
(2.9 -1.1715e-13 0)
(2.9 -2.60425e-13 0)
(2.9 -3.3344e-13 0)
(2.9 -3.25457e-13 0)
(2.9 -1.40642e-13 0)
(2.9 5.88608e-14 0)
(2.9 9.65971e-14 0)
(2.9 2.38125e-14 0)
(2.9 -3.92254e-14 0)
(2.9 -1.24375e-13 0)
(2.9 -1.92465e-13 0)
(2.9 -1.33185e-13 0)
(2.9 -9.94103e-14 0)
(2.9 -9.67627e-14 0)
(2.9 -6.98296e-14 0)
(2.9 -1.26473e-14 0)
(2.9 -5.13119e-14 0)
(2.9 3.55833e-14 0)
(2.9 1.67769e-13 0)
(2.9 1.87079e-13 0)
(2.9 1.8557e-13 0)
(2.9 2.12314e-13 0)
(2.9 3.94172e-13 0)
(2.9 6.98198e-13 0)
(2.9 8.92693e-13 0)
(2.9 8.65792e-13 0)
(2.9 5.99297e-13 0)
(2.9 5.60166e-13 0)
(2.9 4.72671e-13 0)
(2.9 3.9719e-13 0)
(2.9 3.41373e-13 0)
(2.9 2.13125e-13 0)
(2.9 -5.91557e-14 0)
(2.9 4.16207e-14 0)
(2.9 -5.4877e-14 0)
(2.9 -6.10812e-13 0)
(2.9 -6.75495e-13 0)
(2.9 -5.59601e-13 0)
(2.9 -3.98452e-13 0)
(2.9 -2.58455e-13 0)
(2.9 -2.4454e-13 0)
(2.9 -1.47536e-13 0)
(2.9 -2.42123e-14 0)
(2.9 -3.26767e-14 0)
(2.9 -1.59864e-14 0)
(2.9 -1.0465e-13 0)
(2.9 -2.44308e-13 0)
(2.9 -4.22094e-13 0)
(2.9 -2.81366e-13 0)
(2.9 -2.52364e-13 0)
(2.9 -5.34375e-13 0)
(2.9 -5.67285e-13 0)
(2.9 -6.04502e-13 0)
(2.9 -9.45913e-13 0)
(2.9 -1.14894e-12 0)
(2.9 -1.07094e-12 0)
(2.9 -7.17345e-13 0)
(2.9 -3.65253e-13 0)
(2.9 -1.12348e-13 0)
(2.9 -1.07832e-13 0)
(2.9 -3.43176e-13 0)
(2.9 -6.22996e-13 0)
(2.9 -7.87338e-13 0)
(2.9 -5.92402e-13 0)
(2.9 -1.72916e-13 0)
(2.9 1.46295e-13 0)
(2.9 1.09678e-13 0)
(2.9 -1.79238e-14 0)
(2.9 -1.05312e-13 0)
(2.9 -3.7364e-13 0)
(2.9 -5.01678e-13 0)
(2.9 -4.92235e-13 0)
(2.9 -3.08545e-13 0)
(2.9 -2.64806e-13 0)
(2.9 -2.03239e-13 0)
(2.9 -1.37108e-13 0)
(2.9 -1.55859e-14 0)
(2.9 2.00097e-13 0)
(2.9 5.0057e-13 0)
(2.9 5.56354e-13 0)
(2.9 4.67477e-13 0)
(2.9 5.0046e-13 0)
(2.9 4.8314e-13 0)
(2.9 9.47053e-13 0)
(2.9 1.16154e-12 0)
(2.9 1.05641e-12 0)
(2.9 8.22876e-13 0)
(2.9 8.40378e-13 0)
(2.9 7.68025e-13 0)
(2.9 6.5627e-13 0)
(2.9 5.73455e-13 0)
(2.9 2.58487e-13 0)
(2.9 -4.11284e-14 0)
(2.9 5.19441e-14 0)
(2.9 -2.06914e-13 0)
(2.9 -9.21299e-13 0)
(2.9 -9.42341e-13 0)
(2.9 -6.97068e-13 0)
(2.9 -4.67841e-13 0)
(2.9 -3.34667e-13 0)
(2.9 -3.04406e-13 0)
(2.9 -1.09356e-13 0)
(2.9 5.62199e-14 0)
(2.9 3.97431e-14 0)
(2.9 -2.27202e-14 0)
(2.9 -2.22033e-13 0)
(2.9 -4.76547e-13 0)
(2.9 -6.7797e-13 0)
(2.9 -5.85264e-13 0)
(2.9 -5.55338e-13 0)
(2.9 -6.14997e-13 0)
(2.9 -5.98336e-13 0)
(2.9 -7.91594e-13 0)
(2.9 -1.23495e-12 0)
(2.9 -1.55061e-12 0)
(2.9 -1.47228e-12 0)
(2.9 -1.14002e-12 0)
(2.9 -5.20273e-13 0)
(2.9 -1.70005e-13 0)
(2.9 -3.04428e-13 0)
(2.9 -6.18503e-13 0)
(2.9 -8.82634e-13 0)
(2.9 -8.45058e-13 0)
(2.9 -4.70284e-13 0)
(2.9 -1.30509e-13 0)
(2.9 5.69737e-14 0)
(2.9 6.29438e-14 0)
(2.9 -6.18472e-14 0)
(2.9 -3.00381e-13 0)
(2.9 -6.19409e-13 0)
(2.9 -8.36733e-13 0)
(2.9 -7.32832e-13 0)
(2.9 -5.86209e-13 0)
(2.9 -5.37558e-13 0)
(2.9 -4.06436e-13 0)
(2.9 -2.97307e-13 0)
(2.9 1.18836e-13 0)
(2.9 4.4085e-13 0)
(2.9 6.18633e-13 0)
(2.9 6.70089e-13 0)
(2.9 5.74105e-13 0)
(2.9 5.20904e-13 0)
(2.9 4.52056e-13 0)
(2.9 9.78737e-13 0)
(2.9 1.04215e-12 0)
(2.9 9.5039e-13 0)
(2.9 1.05997e-12 0)
(2.9 1.14437e-12 0)
(2.9 1.10909e-12 0)
(2.9 9.78233e-13 0)
(2.9 7.48095e-13 0)
(2.9 3.88878e-13 0)
(2.9 1.48996e-13 0)
(2.9 1.17486e-13 0)
(2.9 -3.09878e-13 0)
(2.9 -1.02873e-12 0)
(2.9 -9.97902e-13 0)
(2.9 -8.06378e-13 0)
(2.9 -5.5122e-13 0)
(2.9 -4.68886e-13 0)
(2.9 -2.74589e-13 0)
(2.9 3.6579e-14 0)
(2.9 1.83477e-13 0)
(2.9 1.70401e-13 0)
(2.9 -5.74221e-14 0)
(2.9 -4.19706e-13 0)
(2.9 -7.33151e-13 0)
(2.9 -7.75465e-13 0)
(2.9 -7.82589e-13 0)
(2.9 -7.4765e-13 0)
(2.9 -5.90028e-13 0)
(2.9 -5.19428e-13 0)
(2.9 -8.49192e-13 0)
(2.9 -1.20446e-12 0)
(2.9 -1.49827e-12 0)
(2.9 -1.49292e-12 0)
(2.9 -1.08015e-12 0)
(2.9 -4.74238e-13 0)
(2.9 -1.7879e-13 0)
(2.9 -3.25102e-13 0)
(2.9 -6.59937e-13 0)
(2.9 -8.44201e-13 0)
(2.9 -5.88929e-13 0)
(2.9 -2.21294e-13 0)
(2.9 -9.61625e-14 0)
(2.9 -2.34796e-15 0)
(2.9 -2.20233e-14 0)
(2.9 -1.59846e-13 0)
(2.9 -4.38173e-13 0)
(2.9 -8.13828e-13 0)
(2.9 -1.00579e-12 0)
(2.9 -8.29229e-13 0)
(2.9 -7.69226e-13 0)
(2.9 -6.7229e-13 0)
(2.9 -4.58373e-13 0)
(2.9 -1.66873e-13 0)
(2.9 3.49827e-13 0)
(2.9 7.21949e-13 0)
(2.9 7.84826e-13 0)
(2.9 7.02493e-13 0)
(2.9 5.50318e-13 0)
(2.9 4.40648e-13 0)
(2.9 2.86772e-13 0)
(2.9 6.32934e-13 0)
(2.9 6.69218e-13 0)
(2.9 8.29496e-13 0)
(2.9 1.23502e-12 0)
(2.9 1.30492e-12 0)
(2.9 1.29866e-12 0)
(2.9 1.06139e-12 0)
(2.9 8.64496e-13 0)
(2.9 6.36009e-13 0)
(2.9 4.10341e-13 0)
(2.9 1.75179e-13 0)
(2.9 -4.41141e-13 0)
(2.9 -9.36291e-13 0)
(2.9 -9.57647e-13 0)
(2.9 -7.43442e-13 0)
(2.9 -5.76477e-13 0)
(2.9 -4.00708e-13 0)
(2.9 -1.07415e-13 0)
(2.9 2.43364e-13 0)
(2.9 3.54159e-13 0)
(2.9 1.91953e-13 0)
(2.9 -9.1863e-14 0)
(2.9 -4.60372e-13 0)
(2.9 -6.6941e-13 0)
(2.9 -7.06523e-13 0)
(2.9 -8.49314e-13 0)
(2.9 -7.11307e-13 0)
(2.9 -4.72157e-13 0)
(2.9 -4.5623e-13 0)
(2.9 -7.06853e-13 0)
(2.9 -1.04638e-12 0)
(2.9 -1.13548e-12 0)
(2.9 -1.12522e-12 0)
(2.9 -7.74552e-13 0)
(2.9 -3.39304e-13 0)
(2.9 -1.48895e-13 0)
(2.9 -2.58804e-13 0)
(2.9 -5.21565e-13 0)
(2.9 -6.24226e-13 0)
(2.9 -2.48676e-13 0)
(2.9 2.94333e-14 0)
(2.9 -1.74948e-15 0)
(2.9 -8.91015e-14 0)
(2.9 -1.00062e-13 0)
(2.9 -2.3931e-13 0)
(2.9 -5.39677e-13 0)
(2.9 -8.48304e-13 0)
(2.9 -8.97795e-13 0)
(2.9 -8.05034e-13 0)
(2.9 -8.67173e-13 0)
(2.9 -7.08402e-13 0)
(2.9 -3.87993e-13 0)
(2.9 8.862e-14 0)
(2.9 5.91694e-13 0)
(2.9 9.56229e-13 0)
(2.9 8.72402e-13 0)
(2.9 6.35159e-13 0)
(2.9 4.56662e-13 0)
(2.9 1.92921e-13 0)
(2.9 1.34866e-13 0)
(2.9 1.78961e-13 0)
(2.9 2.19314e-13 0)
(2.9 5.7025e-13 0)
(2.9 1.01872e-12 0)
(2.9 1.32884e-12 0)
(2.9 1.23039e-12 0)
(2.9 9.76596e-13 0)
(2.9 8.86003e-13 0)
(2.9 7.94635e-13 0)
(2.9 6.49114e-13 0)
(2.9 1.72953e-13 0)
(2.9 -3.03996e-13 0)
(2.9 -6.07116e-13 0)
(2.9 -7.24378e-13 0)
(2.9 -5.58901e-13 0)
(2.9 -4.29799e-13 0)
(2.9 -2.39261e-13 0)
(2.9 1.09454e-13 0)
(2.9 3.64605e-13 0)
(2.9 4.22939e-13 0)
(2.9 3.09722e-13 0)
(2.9 -9.98999e-14 0)
(2.9 -3.15522e-13 0)
(2.9 -3.90223e-13 0)
(2.9 -5.44254e-13 0)
(2.9 -6.85747e-13 0)
(2.9 -5.4146e-13 0)
(2.9 -2.88778e-13 0)
(2.9 -3.28246e-13 0)
(2.9 -6.03919e-13 0)
(2.9 -7.76314e-13 0)
(2.9 -7.6344e-13 0)
(2.9 -6.81641e-13 0)
(2.9 -4.59252e-13 0)
(2.9 -1.88714e-13 0)
(2.9 -3.04225e-14 0)
(2.9 -1.72035e-13 0)
(2.9 -3.59615e-13 0)
(2.9 -2.86875e-13 0)
(2.9 1.65489e-13 0)
(2.9 2.50668e-13 0)
(2.9 -1.09666e-14 0)
(2.9 -2.55107e-13 0)
(2.9 -2.20912e-13 0)
(2.9 -2.43127e-13 0)
(2.9 -3.61274e-13 0)
(2.9 -5.49549e-13 0)
(2.9 -6.20423e-13 0)
(2.9 -6.0408e-13 0)
(2.9 -6.62313e-13 0)
(2.9 -6.22134e-13 0)
(2.9 -2.9946e-13 0)
(2.9 2.76472e-13 0)
(2.9 7.62907e-13 0)
(2.9 9.81488e-13 0)
(2.9 8.08548e-13 0)
(2.9 4.76742e-13 0)
(2.9 1.25298e-13 0)
(2.9 -5.52959e-14 0)
(2.9 -1.70145e-13 0)
(2.9 -2.9639e-13 0)
(2.9 -1.88038e-13 0)
(2.9 2.47854e-13 0)
(2.9 8.54795e-13 0)
(2.9 1.2578e-12 0)
(2.9 1.06343e-12 0)
(2.9 8.21029e-13 0)
(2.9 7.92723e-13 0)
(2.9 8.236e-13 0)
(2.9 7.42186e-13 0)
(2.9 3.67249e-13 0)
(2.9 -1.0255e-14 0)
(2.9 -2.46236e-13 0)
(2.9 -2.25312e-13 0)
(2.9 -2.45631e-13 0)
(2.9 -2.09375e-13 0)
(2.9 -5.97589e-14 0)
(2.9 2.25387e-13 0)
(2.9 3.52801e-13 0)
(2.9 4.06837e-13 0)
(2.9 2.64907e-13 0)
(2.9 6.41612e-14 0)
(2.9 -4.02638e-14 0)
(2.9 -6.79012e-14 0)
(2.9 -3.07048e-13 0)
(2.9 -3.85457e-13 0)
(2.9 -2.99908e-13 0)
(2.9 -1.79466e-13 0)
(2.9 -3.09758e-13 0)
(2.9 -6.13888e-13 0)
(2.9 -6.5172e-13 0)
(2.9 -4.10667e-13 0)
(2.9 -2.86164e-13 0)
(2.9 -2.45897e-13 0)
(2.9 -1.21434e-14 0)
(2.9 1.51173e-13 0)
(2.9 -4.35266e-14 0)
(2.9 -2.07802e-13 0)
(2.9 -5.35954e-14 0)
(2.9 3.95352e-13 0)
(2.9 4.27117e-13 0)
(2.9 -3.55402e-14 0)
(2.9 -4.30285e-13 0)
(2.9 -2.80147e-13 0)
(2.9 -1.48019e-13 0)
(2.9 -1.11142e-13 0)
(2.9 -1.01629e-13 0)
(2.9 -1.1078e-13 0)
(2.9 -2.65305e-13 0)
(2.9 -3.56053e-13 0)
(2.9 -3.47742e-13 0)
(2.9 -5.27927e-14 0)
(2.9 3.88319e-13 0)
(2.9 7.27397e-13 0)
(2.9 8.8662e-13 0)
(2.9 5.92708e-13 0)
(2.9 2.86222e-13 0)
(2.9 -8.12069e-14 0)
(2.9 -2.07777e-13 0)
(2.9 -4.03319e-13 0)
(2.9 -6.36508e-13 0)
(2.9 -4.23139e-13 0)
(2.9 4.92207e-14 0)
(2.9 6.68757e-13 0)
(2.9 9.64728e-13 0)
(2.9 8.77997e-13 0)
(2.9 5.30951e-13 0)
(2.9 5.54908e-13 0)
(2.9 6.85057e-13 0)
(2.9 6.56317e-13 0)
(2.9 6.45202e-13 0)
(2.9 3.75433e-13 0)
(2.9 1.84758e-13 0)
(2.9 3.06704e-13 0)
(2.9 6.89813e-14 0)
(2.9 -3.76843e-14 0)
(2.9 6.39459e-14 0)
(2.9 1.99791e-13 0)
(2.9 3.25767e-13 0)
(2.9 4.00699e-13 0)
(2.9 2.91889e-13 0)
(2.9 2.71834e-13 0)
(2.9 2.62196e-13 0)
(2.9 3.1541e-13 0)
(2.9 1.06311e-13 0)
(2.9 -1.05603e-13 0)
(2.9 -1.57465e-13 0)
(2.9 -1.68316e-13 0)
(2.9 -3.60063e-13 0)
(2.9 -7.49263e-13 0)
(2.9 -6.86621e-13 0)
(2.9 -2.4413e-13 0)
(2.9 -6.95442e-14 0)
(2.9 -8.76362e-14 0)
(2.9 1.40456e-13 0)
(2.9 2.87724e-13 0)
(2.9 6.8612e-14 0)
(2.9 -6.7091e-14 0)
(2.9 7.97438e-14 0)
(2.9 3.35918e-13 0)
(2.9 2.31899e-13 0)
(2.9 -3.01057e-13 0)
(2.9 -5.5029e-13 0)
(2.9 -2.539e-13 0)
(2.9 4.72946e-14 0)
(2.9 2.62579e-13 0)
(2.9 4.30933e-13 0)
(2.9 3.72211e-13 0)
(2.9 2.28042e-14 0)
(2.9 -7.8151e-14 0)
(2.9 -1.08746e-13 0)
(2.9 1.00285e-13 0)
(2.9 3.67639e-13 0)
(2.9 5.35634e-13 0)
(2.9 6.15066e-13 0)
(2.9 3.92081e-13 0)
(2.9 2.21724e-13 0)
(2.9 1.37935e-14 0)
(2.9 -8.453e-14 0)
(2.9 -4.18528e-13 0)
(2.9 -7.05668e-13 0)
(2.9 -3.27498e-13 0)
(2.9 6.02078e-14 0)
(2.9 4.84375e-13 0)
(2.9 6.67592e-13 0)
(2.9 4.61879e-13 0)
(2.9 1.1488e-13 0)
(2.9 1.60316e-13 0)
(2.9 4.92974e-13 0)
(2.9 6.66931e-13 0)
(2.9 7.677e-13 0)
(2.9 7.09626e-13 0)
(2.9 7.15673e-13 0)
(2.9 6.36396e-13 0)
(2.9 2.81195e-13 0)
(2.9 3.98096e-14 0)
(2.9 9.78395e-14 0)
(2.9 1.58704e-13 0)
(2.9 3.30461e-13 0)
(2.9 3.23012e-13 0)
(2.9 3.71047e-13 0)
(2.9 4.09157e-13 0)
(2.9 5.59573e-13 0)
(2.9 6.68937e-13 0)
(2.9 3.88113e-13 0)
(2.9 -1.25046e-14 0)
(2.9 -1.42193e-13 0)
(2.9 -2.19437e-13 0)
(2.9 -5.21316e-13 0)
(2.9 -8.78358e-13 0)
(2.9 -7.6288e-13 0)
(2.9 -3.26858e-13 0)
(2.9 -3.15956e-14 0)
(2.9 1.96264e-13 0)
(2.9 2.9197e-13 0)
(2.9 2.74662e-13 0)
(2.9 1.55671e-13 0)
(2.9 4.99674e-14 0)
(2.9 1.03884e-13 0)
(2.9 1.49699e-13 0)
(2.9 -1.41055e-13 0)
(2.9 -4.42096e-13 0)
(2.9 -4.58618e-13 0)
(2.9 -1.33807e-13 0)
(2.9 3.1266e-13 0)
(2.9 6.72661e-13 0)
(2.9 8.93571e-13 0)
(2.9 6.91695e-13 0)
(2.9 2.99569e-13 0)
(2.9 -1.31761e-14 0)
(2.9 -1.92826e-14 0)
(2.9 1.5801e-13 0)
(2.9 2.5837e-13 0)
(2.9 3.69141e-13 0)
(2.9 4.14628e-13 0)
(2.9 3.32434e-13 0)
(2.9 2.91143e-13 0)
(2.9 3.4283e-13 0)
(2.9 2.93536e-13 0)
(2.9 -2.90203e-13 0)
(2.9 -2.7545e-13 0)
(2.9 3.75106e-16 0)
(2.9 1.43246e-13 0)
(2.9 3.13109e-13 0)
(2.9 3.90149e-13 0)
(2.9 3.44676e-14 0)
(2.9 -2.9973e-13 0)
(2.9 -1.02359e-13 0)
(2.9 4.02408e-13 0)
(2.9 7.23524e-13 0)
(2.9 8.43216e-13 0)
(2.9 8.80589e-13 0)
(2.9 9.91844e-13 0)
(2.9 8.00973e-13 0)
(2.9 5.00381e-13 0)
(2.9 1.94905e-13 0)
(2.9 1.58273e-13 0)
(2.9 2.37177e-13 0)
(2.9 3.11486e-13 0)
(2.9 2.8799e-13 0)
(2.9 4.23325e-13 0)
(2.9 6.11279e-13 0)
(2.9 8.73128e-13 0)
(2.9 8.29722e-13 0)
(2.9 5.34849e-13 0)
(2.9 6.10392e-14 0)
(2.9 -1.0575e-13 0)
(2.9 -2.76332e-13 0)
(2.9 -5.30644e-13 0)
(2.9 -8.20153e-13 0)
(2.9 -7.52209e-13 0)
(2.9 -3.15407e-13 0)
(2.9 -3.36307e-14 0)
(2.9 1.80401e-13 0)
(2.9 2.6967e-13 0)
(2.9 2.3621e-13 0)
(2.9 1.9718e-13 0)
(2.9 1.12077e-13 0)
(2.9 8.43778e-14 0)
(2.9 -8.02029e-14 0)
(2.9 -2.98536e-13 0)
(2.9 -3.47146e-13 0)
(2.9 -2.36825e-13 0)
(2.9 8.79221e-14 0)
(2.9 5.45079e-13 0)
(2.9 9.66225e-13 0)
(2.9 1.0938e-12 0)
(2.9 7.62209e-13 0)
(2.9 3.08708e-13 0)
(2.9 4.43924e-14 0)
(2.9 7.96208e-14 0)
(2.9 2.24161e-13 0)
(2.9 2.61287e-13 0)
(2.9 2.7662e-13 0)
(2.9 3.46011e-13 0)
(2.9 4.41932e-13 0)
(2.9 5.61219e-13 0)
(2.9 7.71542e-13 0)
(2.9 7.16667e-13 0)
(2.9 -2.14708e-14 0)
(2.9 2.69143e-13 0)
(2.9 4.22742e-13 0)
(2.9 2.02382e-13 0)
(2.9 9.90998e-14 0)
(2.9 1.35357e-13 0)
(2.9 -1.14824e-13 0)
(2.9 -2.89127e-13 0)
(2.9 -6.82895e-14 0)
(2.9 3.97268e-13 0)
(2.9 7.11834e-13 0)
(2.9 8.176e-13 0)
(2.9 9.08998e-13 0)
(2.9 1.08977e-12 0)
(2.9 7.96248e-13 0)
(2.9 5.63545e-13 0)
(2.9 3.14652e-13 0)
(2.9 1.78205e-13 0)
(2.9 1.58771e-13 0)
(2.9 1.08071e-13 0)
(2.9 1.29956e-13 0)
(2.9 3.7511e-13 0)
(2.9 6.38792e-13 0)
(2.9 8.23631e-13 0)
(2.9 6.97092e-13 0)
(2.9 3.61607e-13 0)
(2.9 -1.4897e-14 0)
(2.9 -1.86623e-13 0)
(2.9 -3.24211e-13 0)
(2.9 -5.36545e-13 0)
(2.9 -7.19652e-13 0)
(2.9 -7.64065e-13 0)
(2.9 -3.95365e-13 0)
(2.9 -1.82162e-13 0)
(2.9 -6.90573e-14 0)
(2.9 1.78395e-14 0)
(2.9 1.07635e-13 0)
(2.9 1.54927e-13 0)
(2.9 1.49648e-13 0)
(2.9 2.26897e-14 0)
(2.9 -2.35916e-13 0)
(2.9 -3.32693e-13 0)
(2.9 -2.2673e-13 0)
(2.9 -4.48835e-14 0)
(2.9 2.91216e-13 0)
(2.9 7.1989e-13 0)
(2.9 1.03264e-12 0)
(2.9 1.00491e-12 0)
(2.9 7.20381e-13 0)
(2.9 1.8285e-13 0)
(2.9 1.70645e-14 0)
(2.9 3.49732e-14 0)
(2.9 1.30927e-13 0)
(2.9 1.97923e-13 0)
(2.9 2.12237e-13 0)
(2.9 3.35146e-13 0)
(2.9 5.06249e-13 0)
(2.9 8.70356e-13 0)
(2.9 1.13535e-12 0)
(2.9 1.02885e-12 0)
(2.9 2.63387e-13 0)
(2.9 7.07697e-13 0)
(2.9 7.05962e-13 0)
(2.9 2.63016e-13 0)
(2.9 7.13628e-14 0)
(2.9 3.7363e-14 0)
(2.9 -1.28266e-13 0)
(2.9 -9.90709e-14 0)
(2.9 2.35549e-13 0)
(2.9 5.23558e-13 0)
(2.9 6.78862e-13 0)
(2.9 7.7239e-13 0)
(2.9 8.01752e-13 0)
(2.9 8.39201e-13 0)
(2.9 7.96229e-13 0)
(2.9 5.51063e-13 0)
(2.9 3.6687e-13 0)
(2.9 1.13339e-13 0)
(2.9 -8.44819e-14 0)
(2.9 -2.5159e-13 0)
(2.9 -6.22268e-14 0)
(2.9 2.03314e-13 0)
(2.9 4.56097e-13 0)
(2.9 5.53362e-13 0)
(2.9 3.75634e-13 0)
(2.9 1.41826e-13 0)
(2.9 -2.40502e-14 0)
(2.9 -2.31802e-13 0)
(2.9 -3.76943e-13 0)
(2.9 -5.84434e-13 0)
(2.9 -6.02878e-13 0)
(2.9 -5.77842e-13 0)
(2.9 -4.39383e-13 0)
(2.9 -3.4923e-13 0)
(2.9 -3.6437e-13 0)
(2.9 -2.56549e-13 0)
(2.9 -8.35503e-14 0)
(2.9 7.55528e-15 0)
(2.9 1.19195e-13 0)
(2.9 -2.75819e-15 0)
(2.9 -1.93085e-13 0)
(2.9 -2.4284e-13 0)
(2.9 -8.79554e-14 0)
(2.9 6.74705e-14 0)
(2.9 4.29198e-13 0)
(2.9 8.009e-13 0)
(2.9 9.42061e-13 0)
(2.9 7.49783e-13 0)
(2.9 4.78429e-13 0)
(2.9 4.71023e-14 0)
(2.9 -1.10858e-13 0)
(2.9 -2.13079e-14 0)
(2.9 1.06785e-13 0)
(2.9 1.32527e-13 0)
(2.9 2.04041e-13 0)
(2.9 3.08549e-13 0)
(2.9 6.31111e-13 0)
(2.9 1.13869e-12 0)
(2.9 1.36934e-12 0)
(2.9 1.34394e-12 0)
(2.9 4.59387e-13 0)
(2.9 1.00682e-12 0)
(2.9 7.51561e-13 0)
(2.9 3.27741e-13 0)
(2.9 1.89306e-13 0)
(2.9 1.23181e-13 0)
(2.9 7.88465e-14 0)
(2.9 3.32883e-13 0)
(2.9 6.04573e-13 0)
(2.9 7.02959e-13 0)
(2.9 6.84388e-13 0)
(2.9 6.63585e-13 0)
(2.9 6.0164e-13 0)
(2.9 6.79278e-13 0)
(2.9 6.01246e-13 0)
(2.9 4.71708e-13 0)
(2.9 3.29218e-13 0)
(2.9 -3.97048e-14 0)
(2.9 -3.70492e-13 0)
(2.9 -5.26704e-13 0)
(2.9 -2.95306e-13 0)
(2.9 -5.17934e-14 0)
(2.9 2.17413e-13 0)
(2.9 1.4157e-13 0)
(2.9 -9.39309e-14 0)
(2.9 -9.71352e-14 0)
(2.9 -1.51478e-13 0)
(2.9 -2.56361e-13 0)
(2.9 -4.4956e-13 0)
(2.9 -5.72778e-13 0)
(2.9 -4.37671e-13 0)
(2.9 -3.11289e-13 0)
(2.9 -3.25767e-13 0)
(2.9 -4.95187e-13 0)
(2.9 -5.47801e-13 0)
(2.9 -4.70994e-13 0)
(2.9 -3.52492e-13 0)
(2.9 -1.22369e-13 0)
(2.9 -4.09069e-14 0)
(2.9 -4.0674e-14 0)
(2.9 -5.85332e-14 0)
(2.9 -1.94262e-13 0)
(2.9 -1.01243e-13 0)
(2.9 1.525e-13 0)
(2.9 5.07382e-13 0)
(2.9 8.46969e-13 0)
(2.9 7.87402e-13 0)
(2.9 5.28619e-13 0)
(2.9 2.49379e-13 0)
(2.9 -9.0659e-14 0)
(2.9 -1.9285e-13 0)
(2.9 -9.11316e-14 0)
(2.9 -5.68347e-14 0)
(2.9 4.91651e-14 0)
(2.9 1.55111e-13 0)
(2.9 2.97693e-13 0)
(2.9 7.35093e-13 0)
(2.9 1.21132e-12 0)
(2.9 1.37632e-12 0)
(2.9 1.31859e-12 0)
(2.9 5.17059e-13 0)
(2.9 1.01848e-12 0)
(2.9 7.27285e-13 0)
(2.9 3.22739e-13 0)
(2.9 1.22753e-13 0)
(2.9 1.18004e-13 0)
(2.9 2.97499e-13 0)
(2.9 5.97314e-13 0)
(2.9 9.14664e-13 0)
(2.9 8.94061e-13 0)
(2.9 6.55057e-13 0)
(2.9 5.18786e-13 0)
(2.9 4.67346e-13 0)
(2.9 5.49043e-13 0)
(2.9 4.18711e-13 0)
(2.9 3.21082e-13 0)
(2.9 2.0187e-13 0)
(2.9 -1.72373e-13 0)
(2.9 -6.03455e-13 0)
(2.9 -6.65855e-13 0)
(2.9 -4.88773e-13 0)
(2.9 -2.32181e-13 0)
(2.9 -1.13331e-13 0)
(2.9 -3.46116e-13 0)
(2.9 -3.72236e-13 0)
(2.9 -2.13276e-13 0)
(2.9 -1.9188e-13 0)
(2.9 -2.68372e-13 0)
(2.9 -4.76877e-13 0)
(2.9 -4.95378e-13 0)
(2.9 -2.48842e-13 0)
(2.9 8.56748e-15 0)
(2.9 -1.87126e-13 0)
(2.9 -4.09274e-13 0)
(2.9 -5.30058e-13 0)
(2.9 -6.28368e-13 0)
(2.9 -6.39673e-13 0)
(2.9 -3.18075e-13 0)
(2.9 -1.53628e-13 0)
(2.9 2.34684e-14 0)
(2.9 2.73216e-14 0)
(2.9 -2.45815e-13 0)
(2.9 -2.2275e-13 0)
(2.9 2.00935e-13 0)
(2.9 5.18024e-13 0)
(2.9 7.03519e-13 0)
(2.9 5.38344e-13 0)
(2.9 2.90199e-13 0)
(2.9 -9.8507e-15 0)
(2.9 -1.42708e-13 0)
(2.9 -2.41512e-13 0)
(2.9 -2.44555e-13 0)
(2.9 -1.9037e-13 0)
(2.9 -1.16802e-14 0)
(2.9 9.77339e-14 0)
(2.9 3.48195e-13 0)
(2.9 7.03971e-13 0)
(2.9 1.00822e-12 0)
(2.9 1.22299e-12 0)
(2.9 1.15203e-12 0)
(2.9 3.99401e-13 0)
(2.9 7.96915e-13 0)
(2.9 6.25898e-13 0)
(2.9 2.19636e-13 0)
(2.9 4.8597e-14 0)
(2.9 1.16239e-13 0)
(2.9 4.79859e-13 0)
(2.9 9.20108e-13 0)
(2.9 1.17073e-12 0)
(2.9 9.82472e-13 0)
(2.9 4.30182e-13 0)
(2.9 2.78611e-13 0)
(2.9 3.81482e-13 0)
(2.9 3.70825e-13 0)
(2.9 2.34695e-13 0)
(2.9 1.64283e-13 0)
(2.9 1.15105e-13 0)
(2.9 -1.92856e-13 0)
(2.9 -5.72358e-13 0)
(2.9 -6.89644e-13 0)
(2.9 -4.91315e-13 0)
(2.9 -2.56889e-13 0)
(2.9 -3.7451e-13 0)
(2.9 -5.91821e-13 0)
(2.9 -4.64276e-13 0)
(2.9 -1.39672e-13 0)
(2.9 -9.38123e-14 0)
(2.9 -2.35401e-13 0)
(2.9 -4.11509e-13 0)
(2.9 -4.05798e-13 0)
(2.9 -2.38861e-15 0)
(2.9 2.57943e-13 0)
(2.9 4.9632e-14 0)
(2.9 -1.65884e-13 0)
(2.9 -4.88994e-13 0)
(2.9 -8.14744e-13 0)
(2.9 -8.57634e-13 0)
(2.9 -5.20054e-13 0)
(2.9 -1.92178e-13 0)
(2.9 4.12208e-14 0)
(2.9 -4.86783e-14 0)
(2.9 -4.3509e-13 0)
(2.9 -3.44977e-13 0)
(2.9 1.02153e-13 0)
(2.9 3.66078e-13 0)
(2.9 3.47902e-13 0)
(2.9 1.67474e-14 0)
(2.9 -1.29754e-13 0)
(2.9 -1.34283e-13 0)
(2.9 -9.1764e-14 0)
(2.9 -3.14528e-13 0)
(2.9 -3.18447e-13 0)
(2.9 -1.85855e-13 0)
(2.9 -5.14514e-14 0)
(2.9 1.28422e-13 0)
(2.9 3.79332e-13 0)
(2.9 5.46609e-13 0)
(2.9 6.17143e-13 0)
(2.9 7.73289e-13 0)
(2.9 8.355e-13 0)
(2.9 2.15227e-13 0)
(2.9 4.21783e-13 0)
(2.9 3.2592e-13 0)
(2.9 3.9482e-14 0)
(2.9 -6.0175e-14 0)
(2.9 1.94025e-13 0)
(2.9 5.9697e-13 0)
(2.9 1.13081e-12 0)
(2.9 1.1903e-12 0)
(2.9 6.91614e-13 0)
(2.9 1.58304e-13 0)
(2.9 8.88959e-14 0)
(2.9 3.38532e-13 0)
(2.9 2.50978e-13 0)
(2.9 7.44795e-14 0)
(2.9 6.55604e-14 0)
(2.9 1.24828e-13 0)
(2.9 -8.84429e-14 0)
(2.9 -3.55153e-13 0)
(2.9 -4.84917e-13 0)
(2.9 -3.36271e-13 0)
(2.9 -2.07488e-13 0)
(2.9 -4.20044e-13 0)
(2.9 -5.79047e-13 0)
(2.9 -4.41477e-13 0)
(2.9 -1.19877e-13 0)
(2.9 1.07956e-14 0)
(2.9 -1.77167e-13 0)
(2.9 -3.96006e-13 0)
(2.9 -3.10622e-13 0)
(2.9 1.71634e-13 0)
(2.9 4.39098e-13 0)
(2.9 2.93931e-13 0)
(2.9 2.77215e-15 0)
(2.9 -6.12572e-13 0)
(2.9 -1.06033e-12 0)
(2.9 -1.08392e-12 0)
(2.9 -6.57727e-13 0)
(2.9 -2.35533e-13 0)
(2.9 -2.81511e-14 0)
(2.9 -3.14171e-13 0)
(2.9 -5.46783e-13 0)
(2.9 -3.31865e-13 0)
(2.9 1.83505e-14 0)
(2.9 6.8213e-14 0)
(2.9 -1.71643e-13 0)
(2.9 -4.85663e-13 0)
(2.9 -4.91836e-13 0)
(2.9 -1.9536e-13 0)
(2.9 -1.31357e-13 0)
(2.9 -3.13944e-13 0)
(2.9 -2.55137e-13 0)
(2.9 -1.02393e-13 0)
(2.9 3.87114e-15 0)
(2.9 2.62959e-13 0)
(2.9 3.37006e-13 0)
(2.9 3.15085e-13 0)
(2.9 2.77403e-13 0)
(2.9 4.14061e-13 0)
(2.9 4.83036e-13 0)
(2.9 3.28515e-14 0)
(2.9 4.46884e-14 0)
(2.9 2.96748e-14 0)
(2.9 -1.22022e-13 0)
(2.9 -8.73925e-14 0)
(2.9 6.84637e-14 0)
(2.9 5.87331e-13 0)
(2.9 1.08615e-12 0)
(2.9 8.72926e-13 0)
(2.9 1.84416e-13 0)
(2.9 -1.27425e-13 0)
(2.9 1.02726e-13 0)
(2.9 3.50245e-13 0)
(2.9 2.37581e-13 0)
(2.9 5.91477e-14 0)
(2.9 2.29418e-14 0)
(2.9 4.18041e-14 0)
(2.9 5.74747e-14 0)
(2.9 -4.29857e-14 0)
(2.9 -1.63038e-13 0)
(2.9 -5.9857e-14 0)
(2.9 -1.39381e-13 0)
(2.9 -4.10496e-13 0)
(2.9 -4.48165e-13 0)
(2.9 -3.73001e-13 0)
(2.9 -1.91695e-13 0)
(2.9 2.66977e-14 0)
(2.9 -1.164e-13 0)
(2.9 -3.74842e-13 0)
(2.9 -2.61243e-13 0)
(2.9 2.29343e-13 0)
(2.9 5.78161e-13 0)
(2.9 4.86379e-13 0)
(2.9 2.58124e-14 0)
(2.9 -6.84182e-13 0)
(2.9 -1.22056e-12 0)
(2.9 -1.14098e-12 0)
(2.9 -7.18639e-13 0)
(2.9 -2.65414e-13 0)
(2.9 -2.24659e-13 0)
(2.9 -4.31819e-13 0)
(2.9 -3.88908e-13 0)
(2.9 -2.05064e-13 0)
(2.9 -1.27037e-13 0)
(2.9 -2.93204e-13 0)
(2.9 -6.5397e-13 0)
(2.9 -7.77943e-13 0)
(2.9 -5.98559e-13 0)
(2.9 -1.95405e-13 0)
(2.9 -1.86886e-13 0)
(2.9 -1.67225e-13 0)
(2.9 -1.53082e-13 0)
(2.9 -4.22954e-14 0)
(2.9 1.35551e-13 0)
(2.9 3.03017e-13 0)
(2.9 2.16221e-13 0)
(2.9 -2.81631e-14 0)
(2.9 3.98373e-14 0)
(2.9 1.06225e-14 0)
(2.9 1.20034e-13 0)
(2.9 -4.86201e-14 0)
(2.9 -3.89048e-14 0)
(2.9 -9.4985e-14 0)
(2.9 -9.41445e-14 0)
(2.9 -1.79298e-13 0)
(2.9 -1.2017e-13 0)
(2.9 3.15761e-13 0)
(2.9 6.42288e-13 0)
(2.9 2.77115e-13 0)
(2.9 -1.64272e-13 0)
(2.9 -2.12543e-13 0)
(2.9 2.49505e-13 0)
(2.9 4.97943e-13 0)
(2.9 3.69137e-13 0)
(2.9 1.43859e-13 0)
(2.9 -3.0177e-14 0)
(2.9 -6.94854e-14 0)
(2.9 2.08954e-13 0)
(2.9 4.11468e-13 0)
(2.9 3.13564e-13 0)
(2.9 1.0712e-13 0)
(2.9 -1.14062e-13 0)
(2.9 -2.69744e-13 0)
(2.9 -3.27357e-13 0)
(2.9 -2.79944e-13 0)
(2.9 -8.40905e-14 0)
(2.9 1.38018e-14 0)
(2.9 -1.29032e-13 0)
(2.9 -2.06599e-13 0)
(2.9 -1.57897e-13 0)
(2.9 1.76794e-13 0)
(2.9 4.62855e-13 0)
(2.9 4.19231e-13 0)
(2.9 -4.15705e-15 0)
(2.9 -6.60468e-13 0)
(2.9 -1.18271e-12 0)
(2.9 -1.07763e-12 0)
(2.9 -6.51107e-13 0)
(2.9 -3.36579e-13 0)
(2.9 -4.06642e-13 0)
(2.9 -3.65165e-13 0)
(2.9 -1.34397e-13 0)
(2.9 -6.52352e-14 0)
(2.9 -2.72025e-13 0)
(2.9 -6.2661e-13 0)
(2.9 -9.29382e-13 0)
(2.9 -7.93079e-13 0)
(2.9 -5.23635e-13 0)
(2.9 -1.08188e-13 0)
(2.9 -1.52325e-15 0)
(2.9 -1.67538e-14 0)
(2.9 4.45879e-14 0)
(2.9 7.46351e-14 0)
(2.9 1.87488e-13 0)
(2.9 2.10523e-13 0)
(2.9 7.87645e-14 0)
(2.9 -2.35601e-13 0)
(2.9 -3.30613e-13 0)
(2.9 -3.34309e-13 0)
(2.9 -3.13614e-13 0)
(2.9 -2.11128e-14 0)
(2.9 -8.13217e-14 0)
(2.9 -5.34517e-14 0)
(2.9 -8.64615e-14 0)
(2.9 -2.63936e-13 0)
(2.9 -3.87277e-13 0)
(2.9 -6.91245e-14 0)
(2.9 7.82225e-14 0)
(2.9 -1.75683e-13 0)
(2.9 -3.15676e-13 0)
(2.9 1.51748e-14 0)
(2.9 4.9053e-13 0)
(2.9 7.37649e-13 0)
(2.9 6.10532e-13 0)
(2.9 2.13252e-13 0)
(2.9 -1.43846e-13 0)
(2.9 -1.45364e-13 0)
(2.9 3.31152e-13 0)
(2.9 7.7679e-13 0)
(2.9 6.12361e-13 0)
(2.9 1.72615e-13 0)
(2.9 -7.61586e-14 0)
(2.9 -1.0763e-13 0)
(2.9 -2.18685e-13 0)
(2.9 -1.98714e-13 0)
(2.9 4.82225e-14 0)
(2.9 6.4167e-14 0)
(2.9 9.66248e-14 0)
(2.9 -3.58127e-14 0)
(2.9 -2.96884e-14 0)
(2.9 7.94274e-14 0)
(2.9 2.96892e-13 0)
(2.9 2.9121e-13 0)
(2.9 -3.60078e-14 0)
(2.9 -4.92031e-13 0)
(2.9 -9.61877e-13 0)
(2.9 -8.72934e-13 0)
(2.9 -5.91149e-13 0)
(2.9 -4.50304e-13 0)
(2.9 -4.52878e-13 0)
(2.9 -3.80169e-13 0)
(2.9 3.6639e-14 0)
(2.9 1.10919e-13 0)
(2.9 -2.57091e-13 0)
(2.9 -7.23721e-13 0)
(2.9 -9.24626e-13 0)
(2.9 -7.69039e-13 0)
(2.9 -4.29366e-13 0)
(2.9 -6.05879e-14 0)
(2.9 1.41877e-13 0)
(2.9 6.40909e-14 0)
(2.9 1.01561e-13 0)
(2.9 1.80872e-13 0)
(2.9 1.75867e-13 0)
(2.9 2.57031e-14 0)
(2.9 -1.37872e-13 0)
(2.9 -5.10949e-13 0)
(2.9 -7.43083e-13 0)
(2.9 -7.35231e-13 0)
(2.9 -6.92527e-13 0)
(2.9 -5.82368e-14 0)
(2.9 -6.90017e-14 0)
(2.9 4.97929e-14 0)
(2.9 -1.59106e-13 0)
(2.9 -4.83618e-13 0)
(2.9 -5.78236e-13 0)
(2.9 -4.77356e-13 0)
(2.9 -4.15258e-13 0)
(2.9 -4.48761e-13 0)
(2.9 -3.49218e-13 0)
(2.9 1.86877e-13 0)
(2.9 8.52129e-13 0)
(2.9 1.11203e-12 0)
(2.9 7.42445e-13 0)
(2.9 2.56335e-13 0)
(2.9 -3.11282e-13 0)
(2.9 -2.85585e-13 0)
(2.9 3.93156e-13 0)
(2.9 8.46935e-13 0)
(2.9 7.06237e-13 0)
(2.9 1.8822e-13 0)
(2.9 -1.54116e-14 0)
(2.9 -1.57804e-14 0)
(2.9 -5.25836e-15 0)
(2.9 -4.69382e-15 0)
(2.9 2.21681e-15 0)
(2.9 1.09623e-13 0)
(2.9 1.68267e-13 0)
(2.9 8.71191e-14 0)
(2.9 3.3098e-14 0)
(2.9 6.18074e-14 0)
(2.9 1.73771e-13 0)
(2.9 1.09618e-13 0)
(2.9 -5.19321e-14 0)
(2.9 -4.44353e-13 0)
(2.9 -5.94996e-13 0)
(2.9 -5.80317e-13 0)
(2.9 -4.86269e-13 0)
(2.9 -4.96817e-13 0)
(2.9 -5.24931e-13 0)
(2.9 -2.75382e-13 0)
(2.9 1.85277e-13 0)
(2.9 3.17173e-13 0)
(2.9 -1.44316e-13 0)
(2.9 -5.96819e-13 0)
(2.9 -7.71531e-13 0)
(2.9 -7.29179e-13 0)
(2.9 -3.45402e-13 0)
(2.9 -5.84975e-14 0)
(2.9 1.23713e-13 0)
(2.9 6.6289e-14 0)
(2.9 5.35438e-14 0)
(2.9 6.92241e-14 0)
(2.9 -4.83274e-14 0)
(2.9 -2.2108e-13 0)
(2.9 -4.44168e-13 0)
(2.9 -7.49493e-13 0)
(2.9 -9.91676e-13 0)
(2.9 -9.88999e-13 0)
(2.9 -8.54556e-13 0)
(2.9 1.84564e-14 0)
(2.9 6.59988e-14 0)
(2.9 1.12059e-13 0)
(2.9 -5.78812e-14 0)
(2.9 -4.90205e-13 0)
(2.9 -8.08569e-13 0)
(2.9 -8.89916e-13 0)
(2.9 -8.08873e-13 0)
(2.9 -6.73583e-13 0)
(2.9 -3.11924e-13 0)
(2.9 5.86932e-13 0)
(2.9 1.37047e-12 0)
(2.9 1.52605e-12 0)
(2.9 1.00348e-12 0)
(2.9 2.47653e-13 0)
(2.9 -3.28933e-13 0)
(2.9 -3.70334e-13 0)
(2.9 2.72139e-13 0)
(2.9 6.6379e-13 0)
(2.9 5.33168e-13 0)
(2.9 2.06065e-13 0)
(2.9 8.67975e-14 0)
(2.9 3.75216e-14 0)
(2.9 9.92029e-14 0)
(2.9 1.66082e-15 0)
(2.9 -8.1874e-14 0)
(2.9 6.29107e-14 0)
(2.9 2.11452e-13 0)
(2.9 2.53987e-13 0)
(2.9 1.19255e-13 0)
(2.9 8.55736e-14 0)
(2.9 6.48316e-15 0)
(2.9 1.32761e-14 0)
(2.9 -1.36225e-13 0)
(2.9 -2.53497e-13 0)
(2.9 -9.4649e-14 0)
(2.9 -1.18688e-13 0)
(2.9 -2.85825e-13 0)
(2.9 -4.30828e-13 0)
(2.9 -3.88672e-13 0)
(2.9 -3.1504e-14 0)
(2.9 3.63083e-13 0)
(2.9 4.15784e-13 0)
(2.9 -2.7634e-14 0)
(2.9 -3.08164e-13 0)
(2.9 -4.21433e-13 0)
(2.9 -4.71788e-13 0)
(2.9 -2.73419e-13 0)
(2.9 -6.7789e-14 0)
(2.9 -2.39594e-14 0)
(2.9 1.92083e-14 0)
(2.9 -4.6103e-14 0)
(2.9 -2.61113e-13 0)
(2.9 -2.87668e-13 0)
(2.9 -5.2761e-13 0)
(2.9 -7.90356e-13 0)
(2.9 -9.26732e-13 0)
(2.9 -1.0181e-12 0)
(2.9 -9.79341e-13 0)
(2.9 -8.62409e-13 0)
(2.9 1.11825e-13 0)
(2.9 1.77065e-13 0)
(2.9 9.34174e-14 0)
(2.9 -8.62921e-14 0)
(2.9 -4.69838e-13 0)
(2.9 -9.42195e-13 0)
(2.9 -1.18513e-12 0)
(2.9 -1.10831e-12 0)
(2.9 -7.95435e-13 0)
(2.9 -1.46765e-13 0)
(2.9 9.85459e-13 0)
(2.9 1.63756e-12 0)
(2.9 1.68519e-12 0)
(2.9 1.10091e-12 0)
(2.9 2.07673e-13 0)
(2.9 -3.43929e-13 0)
(2.9 -4.55191e-13 0)
(2.9 -3.74303e-15 0)
(2.9 3.54043e-13 0)
(2.9 3.85202e-13 0)
(2.9 2.33258e-13 0)
(2.9 1.03774e-13 0)
(2.9 1.11019e-13 0)
(2.9 1.24484e-13 0)
(2.9 -8.50976e-14 0)
(2.9 -8.51538e-14 0)
(2.9 1.34515e-13 0)
(2.9 2.94996e-13 0)
(2.9 3.18936e-13 0)
(2.9 1.98217e-13 0)
(2.9 3.12604e-14 0)
(2.9 -7.90822e-14 0)
(2.9 -6.76751e-14 0)
(2.9 -1.37538e-13 0)
(2.9 6.14667e-14 0)
(2.9 2.84906e-13 0)
(2.9 2.10675e-13 0)
(2.9 -5.6877e-14 0)
(2.9 -2.66353e-13 0)
(2.9 -1.64238e-13 0)
(2.9 1.72289e-13 0)
(2.9 4.66997e-13 0)
(2.9 4.26358e-13 0)
(2.9 1.05589e-13 0)
(2.9 -6.09896e-14 0)
(2.9 -1.78566e-13 0)
(2.9 -3.00692e-13 0)
(2.9 -2.77023e-13 0)
(2.9 -1.54455e-13 0)
(2.9 -1.44504e-13 0)
(2.9 -7.22135e-14 0)
(2.9 -2.73651e-13 0)
(2.9 -4.79521e-13 0)
(2.9 -4.748e-13 0)
(2.9 -8.10846e-13 0)
(2.9 -1.07362e-12 0)
(2.9 -1.02107e-12 0)
(2.9 -9.98794e-13 0)
(2.9 -9.50867e-13 0)
(2.9 -8.40891e-13 0)
(2.9 1.73183e-13 0)
(2.9 2.25754e-13 0)
(2.9 -1.53636e-14 0)
(2.9 -5.65226e-14 0)
(2.9 -3.20812e-13 0)
(2.9 -9.3121e-13 0)
(2.9 -1.21589e-12 0)
(2.9 -1.14384e-12 0)
(2.9 -7.46669e-13 0)
(2.9 1.57313e-13 0)
(2.9 1.08165e-12 0)
(2.9 1.483e-12 0)
(2.9 1.41192e-12 0)
(2.9 1.0071e-12 0)
(2.9 2.0222e-13 0)
(2.9 -3.93873e-13 0)
(2.9 -5.69055e-13 0)
(2.9 -2.73143e-13 0)
(2.9 1.43041e-13 0)
(2.9 2.90882e-13 0)
(2.9 9.79336e-14 0)
(2.9 -1.94299e-14 0)
(2.9 1.66481e-14 0)
(2.9 3.04791e-14 0)
(2.9 3.96391e-15 0)
(2.9 4.30388e-14 0)
(2.9 1.75237e-13 0)
(2.9 3.00747e-13 0)
(2.9 3.22804e-13 0)
(2.9 2.04049e-13 0)
(2.9 -4.70085e-14 0)
(2.9 -1.44774e-13 0)
(2.9 -2.83504e-13 0)
(2.9 -7.6296e-14 0)
(2.9 3.78458e-13 0)
(2.9 5.16218e-13 0)
(2.9 4.70714e-13 0)
(2.9 1.19775e-13 0)
(2.9 -1.29384e-13 0)
(2.9 -4.49227e-14 0)
(2.9 1.82094e-13 0)
(2.9 3.75194e-13 0)
(2.9 2.92678e-13 0)
(2.9 1.1407e-13 0)
(2.9 1.11175e-14 0)
(2.9 -1.12829e-13 0)
(2.9 -2.42359e-13 0)
(2.9 -4.83253e-13 0)
(2.9 -2.71797e-13 0)
(2.9 -1.85171e-13 0)
(2.9 -2.46057e-13 0)
(2.9 -4.27073e-13 0)
(2.9 -5.27309e-13 0)
(2.9 -7.65715e-13 0)
(2.9 -1.07554e-12 0)
(2.9 -1.1734e-12 0)
(2.9 -1.11135e-12 0)
(2.9 -9.92293e-13 0)
(2.9 -9.29146e-13 0)
(2.9 -7.84506e-13 0)
(2.9 1.21862e-13 0)
(2.9 8.56242e-14 0)
(2.9 -1.62297e-13 0)
(2.9 -2.64939e-14 0)
(2.9 -1.51242e-13 0)
(2.9 -6.71138e-13 0)
(2.9 -1.07903e-12 0)
(2.9 -9.98623e-13 0)
(2.9 -6.59394e-13 0)
(2.9 9.44561e-14 0)
(2.9 6.23582e-13 0)
(2.9 9.14559e-13 0)
(2.9 8.72991e-13 0)
(2.9 5.58813e-13 0)
(2.9 5.62593e-14 0)
(2.9 -3.72097e-13 0)
(2.9 -5.25167e-13 0)
(2.9 -3.88558e-13 0)
(2.9 -3.33159e-14 0)
(2.9 1.36123e-13 0)
(2.9 -6.18298e-14 0)
(2.9 -1.75159e-13 0)
(2.9 -1.94293e-13 0)
(2.9 -1.32061e-13 0)
(2.9 7.0852e-14 0)
(2.9 1.83803e-13 0)
(2.9 2.1461e-13 0)
(2.9 2.04502e-13 0)
(2.9 1.28002e-13 0)
(2.9 -2.51756e-14 0)
(2.9 -2.27072e-13 0)
(2.9 -3.05838e-13 0)
(2.9 -4.12676e-13 0)
(2.9 -1.19101e-13 0)
(2.9 3.75482e-13 0)
(2.9 5.12477e-13 0)
(2.9 3.71383e-13 0)
(2.9 1.22716e-13 0)
(2.9 -1.21189e-13 0)
(2.9 -7.4742e-14 0)
(2.9 1.37985e-14 0)
(2.9 1.3502e-13 0)
(2.9 1.23436e-13 0)
(2.9 9.91227e-15 0)
(2.9 -1.34227e-13 0)