/*--------------------------------*- C++ -*----------------------------------*\
| =========                 |                                                 |
| \\      /  F ield         | OpenFOAM: The Open Source CFD Toolbox           |
|  \\    /   O peration     | Version:  2412                                  |
|   \\  /    A nd           | Website:  www.openfoam.com                      |
|    \\/     M anipulation  |                                                 |
\*---------------------------------------------------------------------------*/
FoamFile
{
    version     2.0;
    format      ascii;
    arch        "LSB;label=32;scalar=64";
    class       volVectorField;
    location    "0.005";
    object      U;
}
// * * * * * * * * * * * * * * * * * * * * * * * * * * * * * * * * * * * * * //

dimensions      [0 1 -1 0 0 0 0];

internalField   nonuniform List<vector> 
1800
(
(2.9 1.11111e-07 0)
(2.9 -1.11831e-07 0)
(2.9 -7.45387e-09 0)
(2.9 5.46114e-08 0)
(2.9 -6.43937e-08 0)
(2.9 8.84066e-11 0)
(2.9 -3.4122e-08 0)
(2.9 -2.46863e-08 0)
(2.9 8.05271e-08 0)
(2.9 2.07611e-07 0)
(2.9 -1.26911e-08 0)
(2.9 8.773e-08 0)
(2.9 2.05314e-10 0)
(2.9 7.59168e-08 0)
(2.9 4.23896e-08 0)
(2.9 -1.1262e-07 0)
(2.9 1.16487e-08 0)
(2.9 -2.75963e-08 0)
(2.9 -4.55694e-08 0)
(2.9 7.75748e-08 0)
(2.9 7.58654e-08 0)
(2.9 -6.74134e-08 0)
(2.9 -1.13519e-07 0)
(2.9 -1.06975e-07 0)
(2.9 -4.37069e-08 0)
(2.9 6.04047e-09 0)
(2.9 1.61806e-08 0)
(2.9 1.1149e-07 0)
(2.9 -5.03464e-08 0)
(2.9 -2.29745e-08 0)
(2.9 1.8404e-07 0)
(2.9 7.36976e-08 0)
(2.9 1.89976e-07 0)
(2.9 1.95335e-07 0)
(2.9 2.95008e-08 0)
(2.9 -3.16763e-09 0)
(2.9 1.43765e-08 0)
(2.9 1.94084e-08 0)
(2.9 2.89423e-08 0)
(2.9 2.19692e-07 0)
(2.9 1.96815e-07 0)
(2.9 1.01187e-08 0)
(2.9 5.54012e-08 0)
(2.9 2.04534e-07 0)
(2.9 2.07604e-07 0)
(2.9 2.3051e-07 0)
(2.9 2.05011e-07 0)
(2.9 3.54978e-08 0)
(2.9 -8.91517e-08 0)
(2.9 -3.71506e-09 0)
(2.9 -2.3506e-08 0)
(2.9 -3.99825e-08 0)
(2.9 -1.3785e-08 0)
(2.9 1.20205e-07 0)
(2.9 3.02826e-08 0)
(2.9 7.91513e-08 0)
(2.9 2.46763e-07 0)
(2.9 3.86401e-08 0)
(2.9 1.04592e-07 0)
(2.9 2.48577e-07 0)
(2.9 1.13045e-07 0)
(2.9 -5.69655e-08 0)
(2.9 1.96709e-08 0)
(2.9 6.9733e-08 0)
(2.9 -5.46737e-10 0)
(2.9 2.69231e-08 0)
(2.9 -9.22557e-08 0)
(2.9 -3.66973e-08 0)
(2.9 1.64372e-07 0)
(2.9 2.84756e-07 0)
(2.9 1.84255e-07 0)
(2.9 2.65964e-07 0)
(2.9 2.08844e-07 0)
(2.9 1.10132e-07 0)
(2.9 5.14625e-08 0)
(2.9 -3.31823e-08 0)
(2.9 4.79414e-08 0)
(2.9 7.72458e-08 0)
(2.9 3.67056e-08 0)
(2.9 1.06678e-07 0)
(2.9 2.42539e-07 0)
(2.9 -1.12891e-07 0)
(2.9 -2.51814e-07 0)
(2.9 -2.56344e-07 0)
(2.9 -1.21205e-07 0)
(2.9 -3.00063e-08 0)
(2.9 -3.89767e-08 0)
(2.9 6.57019e-08 0)
(2.9 -1.1638e-07 0)
(2.9 -1.04685e-08 0)
(2.9 3.01438e-07 0)
(2.9 8.66666e-08 0)
(2.9 2.7054e-07 0)
(2.9 2.93871e-07 0)
(2.9 5.82965e-08 0)
(2.9 1.8079e-08 0)
(2.9 5.0423e-08 0)
(2.9 1.08768e-08 0)
(2.9 9.7953e-08 0)
(2.9 4.00791e-07 0)
(2.9 2.39061e-07 0)
(2.9 3.18848e-08 0)
(2.9 1.33065e-07 0)
(2.9 4.76321e-07 0)
(2.9 5.01227e-07 0)
(2.9 4.13392e-07 0)
(2.9 3.44518e-07 0)
(2.9 5.25499e-08 0)
(2.9 -1.70469e-08 0)
(2.9 -4.19429e-08 0)
(2.9 -1.11848e-07 0)
(2.9 -1.58544e-07 0)
(2.9 -1.18599e-07 0)
(2.9 1.0408e-07 0)
(2.9 3.53583e-08 0)
(2.9 1.60515e-07 0)
(2.9 4.46154e-07 0)
(2.9 2.95908e-07 0)
(2.9 2.5049e-07 0)
(2.9 4.44707e-07 0)
(2.9 -2.67665e-08 0)
(2.9 3.43162e-08 0)
(2.9 9.7776e-08 0)
(2.9 2.58749e-07 0)
(2.9 2.57113e-07 0)
(2.9 5.76338e-08 0)
(2.9 -8.28329e-08 0)
(2.9 -4.11919e-08 0)
(2.9 1.3695e-07 0)
(2.9 2.62299e-07 0)
(2.9 3.44021e-07 0)
(2.9 3.87433e-07 0)
(2.9 5.26696e-07 0)
(2.9 2.63985e-07 0)
(2.9 4.79277e-08 0)
(2.9 5.37941e-08 0)
(2.9 2.32111e-09 0)
(2.9 1.03091e-07 0)
(2.9 5.13216e-08 0)
(2.9 5.00788e-08 0)
(2.9 2.59409e-07 0)
(2.9 -1.07201e-07 0)
(2.9 -3.07122e-07 0)
(2.9 -3.67489e-07 0)
(2.9 -2.02492e-07 0)
(2.9 -1.03612e-07 0)
(2.9 -1.46047e-07 0)
(2.9 -1.78715e-07 0)
(2.9 -1.60269e-07 0)
(2.9 -5.77544e-09 0)
(2.9 1.90074e-07 0)
(2.9 -4.06145e-08 0)
(2.9 6.31609e-08 0)
(2.9 1.23442e-07 0)
(2.9 4.42727e-08 0)
(2.9 4.09841e-08 0)
(2.9 7.68923e-08 0)
(2.9 -3.28031e-08 0)
(2.9 1.64706e-07 0)
(2.9 3.42212e-07 0)
(2.9 2.83477e-07 0)
(2.9 6.31264e-08 0)
(2.9 1.26003e-07 0)
(2.9 3.8808e-07 0)
(2.9 4.9612e-07 0)
(2.9 3.21602e-07 0)
(2.9 2.1798e-07 0)
(2.9 1.81556e-08 0)
(2.9 2.01781e-08 0)
(2.9 -1.25883e-07 0)
(2.9 -2.21575e-07 0)
(2.9 -3.27169e-07 0)
(2.9 -2.77991e-07 0)
(2.9 -1.5524e-07 0)
(2.9 -3.62269e-08 0)
(2.9 1.50958e-07 0)
(2.9 3.7121e-07 0)
(2.9 4.6796e-07 0)
(2.9 3.01479e-07 0)
(2.9 3.61569e-07 0)
(2.9 -7.6153e-08 0)
(2.9 -1.9363e-08 0)
(2.9 1.64718e-07 0)
(2.9 3.57528e-07 0)
(2.9 5.15999e-07 0)
(2.9 9.83177e-08 0)
(2.9 -6.09439e-08 0)
(2.9 -1.26651e-07 0)
(2.9 -5.59721e-08 0)
(2.9 1.99508e-07 0)
(2.9 2.60109e-07 0)
(2.9 3.57581e-07 0)
(2.9 7.29517e-07 0)
(2.9 3.36237e-07 0)
(2.9 -8.0558e-09 0)
(2.9 -1.03757e-07 0)
(2.9 -1.45439e-07 0)
(2.9 -1.43841e-07 0)
(2.9 -1.69296e-07 0)
(2.9 -3.04916e-08 0)
(2.9 1.35214e-07 0)
(2.9 -1.03744e-07 0)
(2.9 -3.6998e-07 0)
(2.9 -4.36469e-07 0)
(2.9 -2.65611e-07 0)
(2.9 -1.74909e-07 0)
(2.9 -2.76951e-07 0)
(2.9 -3.25189e-07 0)
(2.9 -1.76964e-07 0)
(2.9 -2.7512e-08 0)
(2.9 1.38062e-07 0)
(2.9 3.99565e-09 0)
(2.9 -8.79507e-08 0)
(2.9 -3.55103e-09 0)
(2.9 1.60168e-08 0)
(2.9 5.34402e-08 0)
(2.9 1.16588e-07 0)
(2.9 1.65884e-07 0)
(2.9 2.37361e-07 0)
(2.9 2.94543e-07 0)
(2.9 3.52165e-07 0)
(2.9 7.09551e-08 0)
(2.9 7.85757e-08 0)
(2.9 3.19582e-07 0)
(2.9 3.25285e-07 0)
(2.9 2.5482e-07 0)
(2.9 1.0789e-07 0)
(2.9 -8.88094e-08 0)
(2.9 -1.83553e-07 0)
(2.9 -2.30752e-07 0)
(2.9 -3.64257e-07 0)
(2.9 -4.84444e-07 0)
(2.9 -4.62373e-07 0)
(2.9 -3.54885e-07 0)
(2.9 -1.2718e-07 0)
(2.9 9.73634e-08 0)
(2.9 2.81504e-07 0)
(2.9 3.52039e-07 0)
(2.9 2.76776e-07 0)
(2.9 2.89661e-07 0)
(2.9 -7.0659e-08 0)
(2.9 -2.65409e-08 0)
(2.9 1.90527e-07 0)
(2.9 4.47017e-07 0)
(2.9 5.67248e-07 0)
(2.9 5.29444e-08 0)
(2.9 -9.02806e-08 0)
(2.9 -3.15668e-07 0)
(2.9 -2.84576e-07 0)
(2.9 -1.53294e-08 0)
(2.9 2.15253e-07 0)
(2.9 4.74122e-07 0)
(2.9 7.08422e-07 0)
(2.9 3.51242e-07 0)
(2.9 -3.83618e-08 0)
(2.9 -1.77153e-07 0)
(2.9 -3.0047e-07 0)
(2.9 -2.50452e-07 0)
(2.9 -2.95082e-07 0)
(2.9 -6.56475e-08 0)
(2.9 6.76648e-08 0)
(2.9 -1.78438e-07 0)
(2.9 -4.35823e-07 0)
(2.9 -4.2901e-07 0)
(2.9 -2.69227e-07 0)
(2.9 -2.35414e-07 0)
(2.9 -3.8213e-07 0)
(2.9 -3.84924e-07 0)
(2.9 -1.54704e-07 0)
(2.9 -9.24268e-08 0)
(2.9 8.52291e-08 0)
(2.9 3.95768e-08 0)
(2.9 -1.8079e-07 0)
(2.9 -6.95705e-08 0)
(2.9 -5.01245e-09 0)
(2.9 2.23425e-08 0)
(2.9 1.26216e-07 0)
(2.9 3.10924e-07 0)
(2.9 2.62111e-07 0)
(2.9 1.3545e-07 0)
(2.9 1.706e-07 0)
(2.9 7.44969e-08 0)
(2.9 -4.85785e-08 0)
(2.9 3.45014e-07 0)
(2.9 2.30949e-07 0)
(2.9 2.22318e-07 0)
(2.9 -3.94306e-08 0)
(2.9 -1.64649e-07 0)
(2.9 -3.18529e-07 0)
(2.9 -3.26281e-07 0)
(2.9 -4.52636e-07 0)
(2.9 -5.84293e-07 0)
(2.9 -5.52415e-07 0)
(2.9 -4.4624e-07 0)
(2.9 -2.07154e-07 0)
(2.9 2.55428e-08 0)
(2.9 1.56955e-07 0)
(2.9 2.00423e-07 0)
(2.9 1.98446e-07 0)
(2.9 1.52465e-07 0)
(2.9 -1.29424e-07 0)
(2.9 -9.27596e-08 0)
(2.9 1.81969e-07 0)
(2.9 5.23871e-07 0)
(2.9 3.71231e-07 0)
(2.9 1.47426e-07 0)
(2.9 -1.239e-07 0)
(2.9 -4.89695e-07 0)
(2.9 -3.52415e-07 0)
(2.9 -6.11998e-08 0)
(2.9 1.38351e-07 0)
(2.9 5.04786e-07 0)
(2.9 4.74935e-07 0)
(2.9 3.45399e-07 0)
(2.9 3.89921e-09 0)
(2.9 -1.89606e-07 0)
(2.9 -1.11081e-07 0)
(2.9 -1.99057e-07 0)
(2.9 -3.96844e-07 0)
(2.9 -1.02431e-07 0)
(2.9 8.73193e-09 0)
(2.9 -1.33368e-08 0)
(2.9 -1.5653e-07 0)
(2.9 -3.63792e-07 0)
(2.9 -2.12595e-07 0)
(2.9 -2.82644e-07 0)
(2.9 -3.96288e-07 0)
(2.9 -4.1459e-07 0)
(2.9 -7.87297e-08 0)
(2.9 7.34682e-08 0)
(2.9 1.42861e-08 0)
(2.9 -1.28098e-07 0)
(2.9 -2.90529e-07 0)
(2.9 -8.23512e-08 0)
(2.9 -5.80553e-08 0)
(2.9 -5.70437e-08 0)
(2.9 2.70284e-08 0)
(2.9 1.09488e-07 0)
(2.9 1.78367e-07 0)
(2.9 1.49385e-07 0)
(2.9 1.00825e-07 0)
(2.9 8.46009e-08 0)
(2.9 -8.43131e-08 0)
(2.9 1.43997e-07 0)
(2.9 7.7459e-08 0)
(2.9 2.09933e-07 0)
(2.9 8.49054e-08 0)
(2.9 -1.52416e-07 0)
(2.9 -4.35142e-07 0)
(2.9 -3.53889e-07 0)
(2.9 -4.11018e-07 0)
(2.9 -6.37115e-07 0)
(2.9 -4.77314e-07 0)
(2.9 -5.41681e-07 0)
(2.9 -2.79437e-07 0)
(2.9 -9.93517e-08 0)
(2.9 -5.05386e-08 0)
(2.9 -1.78394e-09 0)
(2.9 1.72154e-08 0)
(2.9 -6.06402e-08 0)
(2.9 -9.4141e-09 0)
(2.9 7.01144e-08 0)
(2.9 9.25775e-08 0)
(2.9 2.90732e-07 0)
(2.9 1.51704e-07 0)
(2.9 2.16283e-07 0)
(2.9 -9.33031e-08 0)
(2.9 -2.74934e-07 0)
(2.9 -2.71733e-07 0)
(2.9 -5.97203e-08 0)
(2.9 -6.87355e-08 0)
(2.9 2.55707e-07 0)
(2.9 2.46276e-07 0)
(2.9 1.1811e-07 0)
(2.9 8.20659e-08 0)
(2.9 4.87799e-08 0)
(2.9 1.70766e-07 0)
(2.9 -5.58916e-08 0)
(2.9 -2.85808e-07 0)
(2.9 -1.1584e-07 0)
(2.9 -1.33771e-08 0)
(2.9 1.96585e-07 0)
(2.9 1.91778e-07 0)
(2.9 -6.3619e-08 0)
(2.9 -1.24931e-07 0)
(2.9 -2.75616e-07 0)
(2.9 -2.83828e-07 0)
(2.9 -1.86703e-07 0)
(2.9 2.89696e-08 0)
(2.9 2.18444e-07 0)
(2.9 -7.90128e-08 0)
(2.9 -1.81954e-07 0)
(2.9 -1.62246e-07 0)
(2.9 -7.31972e-08 0)
(2.9 -1.32098e-07 0)
(2.9 -1.49006e-07 0)
(2.9 -1.63563e-07 0)
(2.9 -1.07334e-07 0)
(2.9 2.98549e-08 0)
(2.9 2.03689e-07 0)
(2.9 5.19186e-08 0)
(2.9 8.6772e-09 0)
(2.9 -1.35163e-09 0)
(2.9 1.09711e-08 0)
(2.9 1.22772e-07 0)
(2.9 2.1288e-07 0)
(2.9 2.43824e-07 0)
(2.9 -8.02778e-08 0)
(2.9 -2.60861e-07 0)
(2.9 -2.49857e-07 0)
(2.9 -2.85773e-07 0)
(2.9 -4.01915e-07 0)
(2.9 -3.43178e-07 0)
(2.9 -4.40308e-07 0)
(2.9 -3.23035e-07 0)
(2.9 -2.62629e-07 0)
(2.9 -2.57888e-07 0)
(2.9 -1.94227e-07 0)
(2.9 -2.00992e-07 0)
(2.9 -2.27169e-07 0)
(2.9 4.73256e-08 0)
(2.9 1.91438e-07 0)
(2.9 1.54027e-07 0)
(2.9 1.15691e-07 0)
(2.9 -8.39107e-08 0)
(2.9 8.06935e-08 0)
(2.9 -9.8436e-09 0)
(2.9 -6.09655e-08 0)
(2.9 -2.32689e-07 0)
(2.9 -7.1291e-08 0)
(2.9 -8.18693e-08 0)
(2.9 1.13399e-07 0)
(2.9 8.39628e-08 0)
(2.9 -2.88609e-08 0)
(2.9 1.72972e-07 0)
(2.9 1.96632e-07 0)
(2.9 2.25426e-07 0)
(2.9 1.28933e-07 0)
(2.9 1.69486e-08 0)
(2.9 -3.36614e-08 0)
(2.9 1.53627e-08 0)
(2.9 1.53172e-07 0)
(2.9 2.49348e-07 0)
(2.9 1.0761e-07 0)
(2.9 -4.1353e-08 0)
(2.9 -1.74485e-07 0)
(2.9 -1.40326e-07 0)
(2.9 -2.95924e-08 0)
(2.9 9.71189e-08 0)
(2.9 9.23635e-08 0)
(2.9 -1.4339e-07 0)
(2.9 -1.34612e-07 0)
(2.9 -7.08412e-08 0)
(2.9 -6.17011e-08 0)
(2.9 -1.54406e-07 0)
(2.9 -2.31375e-07 0)
(2.9 -3.13761e-07 0)
(2.9 -2.40905e-07 0)
(2.9 -7.70049e-08 0)
(2.9 3.68208e-08 0)
(2.9 -8.24024e-08 0)
(2.9 -1.85248e-07 0)
(2.9 -1.62574e-07 0)
(2.9 -4.40866e-08 0)
(2.9 1.49286e-07 0)
(2.9 2.01662e-07 0)
(2.9 1.77612e-07 0)
(2.9 2.75406e-08 0)
(2.9 -1.17056e-07 0)
(2.9 -1.53181e-07 0)
(2.9 -1.75554e-07 0)
(2.9 -2.24027e-07 0)
(2.9 -2.39778e-07 0)
(2.9 -3.38695e-07 0)
(2.9 -3.18571e-07 0)
(2.9 -3.43944e-07 0)
(2.9 -3.41615e-07 0)
(2.9 -3.03781e-07 0)
(2.9 -3.03681e-07 0)
(2.9 -2.78865e-07 0)
(2.9 4.12183e-08 0)
(2.9 3.37803e-08 0)
(2.9 1.87338e-07 0)
(2.9 2.79561e-08 0)
(2.9 -3.34561e-08 0)
(2.9 4.98969e-08 0)
(2.9 9.17159e-09 0)
(2.9 -2.06079e-07 0)
(2.9 -3.14776e-07 0)
(2.9 -3.11004e-08 0)
(2.9 2.11507e-07 0)
(2.9 9.33126e-08 0)
(2.9 6.34157e-08 0)
(2.9 1.55397e-07 0)
(2.9 2.83353e-07 0)
(2.9 2.66929e-07 0)
(2.9 3.17022e-07 0)
(2.9 3.08003e-07 0)
(2.9 2.90677e-07 0)
(2.9 1.1374e-07 0)
(2.9 3.38136e-08 0)
(2.9 1.10355e-07 0)
(2.9 2.70519e-07 0)
(2.9 1.66072e-07 0)
(2.9 5.91115e-08 0)
(2.9 -6.88433e-08 0)
(2.9 -7.65834e-08 0)
(2.9 1.77942e-08 0)
(2.9 1.20534e-07 0)
(2.9 2.31686e-08 0)
(2.9 -9.84156e-08 0)
(2.9 -2.21651e-08 0)
(2.9 -3.69559e-08 0)
(2.9 -2.49855e-08 0)
(2.9 -1.26358e-07 0)
(2.9 -2.56607e-07 0)
(2.9 -3.17346e-07 0)
(2.9 -2.50923e-07 0)
(2.9 -1.1909e-07 0)
(2.9 -8.97669e-08 0)
(2.9 -2.63928e-07 0)
(2.9 -3.4716e-07 0)
(2.9 -1.62114e-07 0)
(2.9 -6.73603e-09 0)
(2.9 1.85256e-07 0)
(2.9 1.79555e-07 0)
(2.9 1.73073e-07 0)
(2.9 1.1038e-07 0)
(2.9 -1.43575e-07 0)
(2.9 -1.51492e-07 0)
(2.9 -1.21384e-07 0)
(2.9 -1.35697e-07 0)
(2.9 -8.53572e-08 0)
(2.9 -2.01441e-07 0)
(2.9 -2.25736e-07 0)
(2.9 -2.82245e-07 0)
(2.9 -2.98873e-07 0)
(2.9 -3.23237e-07 0)
(2.9 -2.85707e-07 0)
(2.9 -2.46524e-07 0)
(2.9 9.13254e-08 0)
(2.9 -7.00642e-08 0)
(2.9 4.02919e-08 0)
(2.9 -1.62127e-08 0)
(2.9 3.49022e-08 0)
(2.9 2.31509e-08 0)
(2.9 -2.17154e-08 0)
(2.9 -3.9944e-08 0)
(2.9 -1.83857e-07 0)
(2.9 5.66964e-08 0)
(2.9 3.18865e-07 0)
(2.9 1.09564e-07 0)
(2.9 9.23332e-08 0)
(2.9 3.6415e-07 0)
(2.9 3.8734e-07 0)
(2.9 5.82385e-07 0)
(2.9 4.16865e-07 0)
(2.9 4.46582e-07 0)
(2.9 5.68596e-07 0)
(2.9 2.32862e-07 0)
(2.9 -2.45714e-10 0)
(2.9 8.50596e-08 0)
(2.9 2.8301e-07 0)
(2.9 4.599e-07 0)
(2.9 1.46917e-07 0)
(2.9 -5.85187e-08 0)
(2.9 -8.43145e-08 0)
(2.9 2.81097e-07 0)
(2.9 1.38822e-07 0)
(2.9 3.3219e-08 0)
(2.9 1.92672e-08 0)
(2.9 4.76296e-08 0)
(2.9 2.40825e-07 0)
(2.9 3.60186e-08 0)
(2.9 -6.96373e-08 0)
(2.9 -2.14358e-07 0)
(2.9 -2.04382e-07 0)
(2.9 -2.07645e-07 0)
(2.9 -1.15742e-07 0)
(2.9 -1.45275e-07 0)
(2.9 -4.53302e-07 0)
(2.9 -3.6599e-07 0)
(2.9 -1.81902e-08 0)
(2.9 5.39368e-09 0)
(2.9 2.48679e-07 0)
(2.9 1.49548e-07 0)
(2.9 1.61636e-07 0)
(2.9 7.24428e-08 0)
(2.9 -5.04719e-08 0)
(2.9 -2.09322e-07 0)
(2.9 -1.0213e-07 0)
(2.9 1.70103e-07 0)
(2.9 1.18203e-07 0)
(2.9 2.3605e-07 0)
(2.9 -6.98507e-08 0)
(2.9 -1.315e-07 0)
(2.9 -2.446e-07 0)
(2.9 -3.17193e-07 0)
(2.9 -2.14667e-07 0)
(2.9 -1.99144e-07 0)
(2.9 1.89276e-08 0)
(2.9 -1.80805e-07 0)
(2.9 -1.32821e-08 0)
(2.9 -7.39336e-08 0)
(2.9 -2.04015e-07 0)
(2.9 -4.35354e-08 0)
(2.9 -6.13593e-09 0)
(2.9 1.77778e-07 0)
(2.9 1.75699e-07 0)
(2.9 1.45509e-07 0)
(2.9 1.81723e-07 0)
(2.9 9.70398e-08 0)
(2.9 1.67885e-08 0)
(2.9 2.7547e-07 0)
(2.9 3.70918e-07 0)
(2.9 5.88759e-07 0)
(2.9 4.30008e-07 0)
(2.9 4.95217e-07 0)
(2.9 5.32773e-07 0)
(2.9 2.57866e-07 0)
(2.9 -5.80094e-08 0)
(2.9 9.32141e-08 0)
(2.9 2.72625e-07 0)
(2.9 5.02902e-07 0)
(2.9 1.40588e-07 0)
(2.9 -8.41393e-08 0)
(2.9 -1.45505e-07 0)
(2.9 2.89281e-07 0)
(2.9 1.25869e-07 0)
(2.9 4.59206e-08 0)
(2.9 9.03041e-08 0)
(2.9 -3.87578e-08 0)
(2.9 3.04317e-07 0)
(2.9 8.3512e-08 0)
(2.9 2.89295e-09 0)
(2.9 -1.70278e-07 0)
(2.9 -5.11351e-08 0)
(2.9 -2.05997e-07 0)
(2.9 -6.06663e-08 0)
(2.9 -1.26932e-07 0)
(2.9 -2.99306e-07 0)
(2.9 -2.2634e-07 0)
(2.9 -1.41907e-07 0)
(2.9 -1.26159e-07 0)
(2.9 1.17914e-07 0)
(2.9 1.06002e-07 0)
(2.9 8.748e-08 0)
(2.9 -8.38666e-08 0)
(2.9 -2.13352e-07 0)
(2.9 -2.84048e-07 0)
(2.9 -1.31899e-07 0)
(2.9 1.58534e-07 0)
(2.9 2.1481e-07 0)
(2.9 3.62174e-07 0)
(2.9 -2.37058e-10 0)
(2.9 1.57126e-10 0)
(2.9 -2.54458e-07 0)
(2.9 -3.11053e-07 0)
(2.9 -1.15848e-07 0)
(2.9 -1.84978e-07 0)
(2.9 2.19173e-08 0)
(2.9 -7.4081e-08 0)
(2.9 -5.44086e-08 0)
(2.9 -1.33358e-07 0)
(2.9 -2.03959e-07 0)
(2.9 -4.05445e-08 0)
(2.9 2.74315e-08 0)
(2.9 1.24403e-07 0)
(2.9 2.69372e-07 0)
(2.9 1.75944e-07 0)
(2.9 1.75518e-08 0)
(2.9 6.58162e-08 0)
(2.9 8.45065e-08 0)
(2.9 7.93873e-08 0)
(2.9 1.91628e-07 0)
(2.9 3.03967e-07 0)
(2.9 3.38847e-07 0)
(2.9 3.84458e-07 0)
(2.9 4.05184e-07 0)
(2.9 2.34694e-07 0)
(2.9 1.32921e-07 0)
(2.9 1.30879e-07 0)
(2.9 2.41855e-07 0)
(2.9 2.95296e-07 0)
(2.9 4.0543e-08 0)
(2.9 -5.66818e-08 0)
(2.9 -1.38441e-08 0)
(2.9 7.75091e-08 0)
(2.9 1.24645e-08 0)
(2.9 -4.07637e-08 0)
(2.9 7.73852e-08 0)
(2.9 3.03322e-08 0)
(2.9 2.22832e-07 0)
(2.9 8.42204e-08 0)
(2.9 7.16407e-08 0)
(2.9 9.63757e-08 0)
(2.9 1.20688e-07 0)
(2.9 -1.87408e-08 0)
(2.9 3.49868e-08 0)
(2.9 -4.96836e-08 0)
(2.9 -2.69806e-08 0)
(2.9 -4.48547e-08 0)
(2.9 -7.52615e-08 0)
(2.9 -4.66063e-08 0)
(2.9 9.66443e-08 0)
(2.9 7.13368e-08 0)
(2.9 -1.38102e-08 0)
(2.9 -1.8006e-07 0)
(2.9 -2.13999e-07 0)
(2.9 -2.78036e-07 0)
(2.9 -2.10575e-07 0)
(2.9 -1.10924e-07 0)
(2.9 1.55003e-07 0)
(2.9 1.33205e-07 0)
(2.9 1.83079e-07 0)
(2.9 1.00862e-07 0)
(2.9 8.11524e-09 0)
(2.9 -1.84943e-08 0)
(2.9 3.29788e-08 0)
(2.9 8.10481e-08 0)
(2.9 2.34119e-08 0)
(2.9 -3.77053e-08 0)
(2.9 -1.03655e-07 0)
(2.9 -9.73647e-08 0)
(2.9 9.26173e-08 0)
(2.9 3.78586e-08 0)
(2.9 6.83845e-08 0)
(2.9 1.01507e-07 0)
(2.9 1.27554e-07 0)
(2.9 1.83318e-07 0)
(2.9 1.20101e-07 0)
(2.9 -3.72891e-08 0)
(2.9 9.36517e-08 0)
(2.9 2.56703e-08 0)
(2.9 -1.78029e-08 0)
(2.9 8.61806e-08 0)
(2.9 1.43088e-07 0)
(2.9 1.01111e-07 0)
(2.9 2.65199e-07 0)
(2.9 1.72563e-07 0)
(2.9 3.06843e-07 0)
(2.9 1.39606e-07 0)
(2.9 1.59141e-07 0)
(2.9 6.21151e-08 0)
(2.9 -8.42164e-08 0)
(2.9 -4.03883e-08 0)
(2.9 1.35788e-08 0)
(2.9 -1.09123e-07 0)
(2.9 -2.00195e-07 0)
(2.9 -1.86811e-07 0)
(2.9 4.80545e-08 0)
(2.9 3.4021e-07 0)
(2.9 1.78972e-07 0)
(2.9 4.01478e-08 0)
(2.9 9.45852e-08 0)
(2.9 3.13491e-07 0)
(2.9 2.57929e-07 0)
(2.9 3.69368e-07 0)
(2.9 1.45889e-07 0)
(2.9 6.39983e-08 0)
(2.9 -7.12096e-09 0)
(2.9 1.57505e-08 0)
(2.9 2.47651e-07 0)
(2.9 3.1325e-07 0)
(2.9 1.34284e-07 0)
(2.9 5.27966e-08 0)
(2.9 -5.82166e-08 0)
(2.9 -1.26128e-07 0)
(2.9 -7.32592e-08 0)
(2.9 -2.46867e-07 0)
(2.9 -2.62223e-07 0)
(2.9 -1.00947e-07 0)
(2.9 1.16224e-08 0)
(2.9 1.19144e-07 0)
(2.9 3.01576e-07 0)
(2.9 1.65781e-07 0)
(2.9 2.75825e-07 0)
(2.9 2.59243e-07 0)
(2.9 1.62044e-07 0)
(2.9 3.24843e-07 0)
(2.9 4.55186e-08 0)
(2.9 -3.73795e-08 0)
(2.9 -5.35176e-08 0)
(2.9 1.48909e-08 0)
(2.9 1.62014e-07 0)
(2.9 1.22813e-07 0)
(2.9 1.37432e-07 0)
(2.9 9.99845e-08 0)
(2.9 2.73799e-07 0)
(2.9 2.2568e-07 0)
(2.9 1.83614e-07 0)
(2.9 -1.95538e-07 0)
(2.9 -1.59697e-07 0)
(2.9 -1.49471e-08 0)
(2.9 -1.28873e-07 0)
(2.9 -9.55112e-08 0)
(2.9 -1.26847e-07 0)
(2.9 -1.81571e-07 0)
(2.9 -4.94912e-08 0)
(2.9 6.87506e-08 0)
(2.9 2.18534e-07 0)
(2.9 3.52481e-08 0)
(2.9 1.53374e-08 0)
(2.9 -1.35729e-07 0)
(2.9 -1.57371e-07 0)
(2.9 -7.89344e-08 0)
(2.9 -2.96673e-07 0)
(2.9 -3.11794e-07 0)
(2.9 -3.87149e-07 0)
(2.9 -3.08467e-07 0)
(2.9 7.05979e-09 0)
(2.9 3.81291e-07 0)
(2.9 3.99302e-08 0)
(2.9 -2.11115e-08 0)
(2.9 6.95257e-08 0)
(2.9 2.41968e-07 0)
(2.9 2.92001e-07 0)
(2.9 4.73025e-07 0)
(2.9 2.19314e-07 0)
(2.9 1.89836e-07 0)
(2.9 2.11313e-07 0)
(2.9 -3.39895e-08 0)
(2.9 3.68416e-07 0)
(2.9 4.42435e-07 0)
(2.9 1.08559e-07 0)
(2.9 3.81479e-08 0)
(2.9 -1.84066e-08 0)
(2.9 -3.32158e-08 0)
(2.9 -1.9315e-07 0)
(2.9 -2.95243e-07 0)
(2.9 -3.19808e-07 0)
(2.9 -1.04866e-07 0)
(2.9 -1.32754e-07 0)
(2.9 1.42413e-07 0)
(2.9 1.78925e-07 0)
(2.9 1.72531e-07 0)
(2.9 2.581e-07 0)
(2.9 2.17604e-07 0)
(2.9 2.06924e-07 0)
(2.9 2.75961e-07 0)
(2.9 9.71584e-08 0)
(2.9 2.4637e-07 0)
(2.9 8.04715e-08 0)
(2.9 1.16606e-07 0)
(2.9 2.41823e-07 0)
(2.9 2.02774e-07 0)
(2.9 1.9863e-07 0)
(2.9 3.15832e-07 0)
(2.9 4.30548e-07 0)
(2.9 1.88019e-07 0)
(2.9 -1.4898e-08 0)
(2.9 -3.38341e-07 0)
(2.9 -3.24543e-07 0)
(2.9 -1.68152e-07 0)
(2.9 -2.05181e-07 0)
(2.9 -2.65946e-07 0)
(2.9 -3.07712e-07 0)
(2.9 -3.3492e-07 0)
(2.9 -2.30025e-07 0)
(2.9 -1.37896e-08 0)
(2.9 1.65369e-07 0)
(2.9 1.19922e-07 0)
(2.9 -6.80875e-08 0)
(2.9 -2.29913e-07 0)
(2.9 -2.06774e-07 0)
(2.9 -1.43656e-07 0)
(2.9 -4.14462e-07 0)
(2.9 -4.62905e-07 0)
(2.9 -4.87864e-07 0)
(2.9 -4.1598e-07 0)
(2.9 -6.68931e-08 0)
(2.9 1.45536e-07 0)
(2.9 -1.65973e-07 0)
(2.9 -1.02263e-07 0)
(2.9 2.03273e-08 0)
(2.9 1.73472e-07 0)
(2.9 2.53552e-07 0)
(2.9 3.41227e-07 0)
(2.9 2.36941e-07 0)
(2.9 2.62643e-07 0)
(2.9 3.81543e-07 0)
(2.9 7.28164e-08 0)
(2.9 3.09002e-07 0)
(2.9 3.13443e-07 0)
(2.9 -2.78549e-08 0)
(2.9 2.51348e-08 0)
(2.9 -9.55526e-10 0)
(2.9 3.63427e-08 0)
(2.9 -1.28078e-07 0)
(2.9 -1.21843e-07 0)
(2.9 -4.20086e-07 0)
(2.9 -2.98794e-07 0)
(2.9 -1.88492e-07 0)
(2.9 1.6142e-08 0)
(2.9 7.90146e-08 0)
(2.9 1.48434e-07 0)
(2.9 2.38984e-07 0)
(2.9 9.246e-08 0)
(2.9 1.93057e-07 0)
(2.9 2.28316e-07 0)
(2.9 9.64057e-08 0)
(2.9 2.73157e-07 0)
(2.9 1.30436e-07 0)
(2.9 1.23405e-07 0)
(2.9 2.8836e-07 0)
(2.9 2.06542e-07 0)
(2.9 1.91131e-07 0)
(2.9 4.57229e-07 0)
(2.9 2.26109e-07 0)
(2.9 6.64068e-08 0)
(2.9 -1.16735e-07 0)
(2.9 -4.29328e-07 0)
(2.9 -3.52432e-07 0)
(2.9 -1.84082e-07 0)
(2.9 -2.71841e-07 0)
(2.9 -3.45531e-07 0)
(2.9 -3.70068e-07 0)
(2.9 -3.82241e-07 0)
(2.9 -3.01767e-07 0)
(2.9 -4.64718e-08 0)
(2.9 1.26258e-07 0)
(2.9 2.25972e-07 0)
(2.9 -9.6726e-08 0)
(2.9 -3.01946e-07 0)
(2.9 -2.94128e-07 0)
(2.9 -2.65173e-07 0)
(2.9 -2.60223e-07 0)
(2.9 -5.20631e-07 0)
(2.9 -5.40719e-07 0)
(2.9 -5.06188e-07 0)
(2.9 -1.63319e-07 0)
(2.9 -2.15658e-08 0)
(2.9 -1.15124e-07 0)
(2.9 -1.71844e-07 0)
(2.9 -3.70191e-08 0)
(2.9 1.07636e-07 0)
(2.9 1.9249e-07 0)
(2.9 2.13342e-07 0)
(2.9 1.99072e-07 0)
(2.9 1.80431e-07 0)
(2.9 2.27688e-07 0)
(2.9 3.44321e-07 0)
(2.9 2.43666e-07 0)
(2.9 2.10398e-07 0)
(2.9 8.01825e-08 0)
(2.9 -4.43034e-08 0)
(2.9 -6.60498e-08 0)
(2.9 4.39612e-08 0)
(2.9 8.33504e-08 0)
(2.9 7.03641e-08 0)
(2.9 -2.23522e-07 0)
(2.9 -3.68358e-07 0)
(2.9 -1.50987e-07 0)
(2.9 -8.57945e-08 0)
(2.9 -1.62712e-08 0)
(2.9 1.00699e-07 0)
(2.9 1.4193e-07 0)
(2.9 1.28828e-07 0)
(2.9 1.4698e-07 0)
(2.9 1.09338e-07 0)
(2.9 4.73108e-08 0)
(2.9 4.51042e-08 0)
(2.9 9.19907e-08 0)
(2.9 1.97401e-08 0)
(2.9 2.86083e-07 0)
(2.9 1.02664e-07 0)
(2.9 1.2186e-07 0)
(2.9 3.10266e-07 0)
(2.9 2.09365e-07 0)
(2.9 -2.62165e-08 0)
(2.9 -1.10528e-07 0)
(2.9 -1.71125e-07 0)
(2.9 -3.10202e-07 0)
(2.9 -1.16646e-07 0)
(2.9 -3.17501e-07 0)
(2.9 -4.43175e-07 0)
(2.9 -3.80347e-07 0)
(2.9 -3.48764e-07 0)
(2.9 -3.43008e-07 0)
(2.9 -2.78422e-08 0)
(2.9 6.41184e-08 0)
(2.9 9.34737e-08 0)
(2.9 -1.85931e-07 0)
(2.9 -3.97195e-07 0)
(2.9 -4.10381e-07 0)
(2.9 -3.68358e-07 0)
(2.9 -1.84906e-07 0)
(2.9 -5.66689e-07 0)
(2.9 -4.97827e-07 0)
(2.9 -5.69204e-07 0)
(2.9 -2.46143e-07 0)
(2.9 -1.11759e-07 0)
(2.9 -6.05372e-08 0)
(2.9 -2.27791e-07 0)
(2.9 -7.56842e-08 0)
(2.9 2.17273e-08 0)
(2.9 3.20006e-08 0)
(2.9 4.02162e-08 0)
(2.9 -2.64982e-10 0)
(2.9 -9.89496e-08 0)
(2.9 -1.98858e-08 0)
(2.9 3.33174e-07 0)
(2.9 7.04049e-08 0)
(2.9 1.65643e-07 0)
(2.9 1.18843e-07 0)
(2.9 -2.33079e-07 0)
(2.9 -1.8711e-07 0)
(2.9 -3.77622e-08 0)
(2.9 2.44804e-07 0)
(2.9 5.42777e-08 0)
(2.9 3.09974e-08 0)
(2.9 -2.39736e-07 0)
(2.9 -1.18414e-07 0)
(2.9 -2.62892e-07 0)
(2.9 -1.07767e-07 0)
(2.9 -3.75272e-08 0)
(2.9 -8.33849e-08 0)
(2.9 9.09564e-08 0)
(2.9 -4.49126e-09 0)
(2.9 -1.51643e-07 0)
(2.9 4.0029e-08 0)
(2.9 8.72217e-08 0)
(2.9 5.32721e-08 0)
(2.9 1.04105e-07 0)
(2.9 2.61017e-07 0)
(2.9 -2.39173e-08 0)
(2.9 3.43678e-08 0)
(2.9 1.75087e-07 0)
(2.9 2.0883e-07 0)
(2.9 -8.15708e-08 0)
(2.9 -3.50519e-08 0)
(2.9 1.41821e-07 0)
(2.9 -5.1315e-08 0)
(2.9 8.15389e-09 0)
(2.9 -1.49808e-07 0)
(2.9 -3.30438e-07 0)
(2.9 -3.05165e-07 0)
(2.9 -3.0442e-07 0)
(2.9 -1.73094e-07 0)
(2.9 -7.71683e-09 0)
(2.9 -5.45351e-08 0)
(2.9 -1.22816e-07 0)
(2.9 -3.08656e-07 0)
(2.9 -5.20052e-07 0)
(2.9 -5.43379e-07 0)
(2.9 -3.37614e-07 0)
(2.9 -1.53396e-07 0)
(2.9 -3.53168e-07 0)
(2.9 -2.75912e-07 0)
(2.9 -4.34874e-07 0)
(2.9 -3.07253e-07 0)
(2.9 -2.25863e-07 0)
(2.9 -2.11303e-07 0)
(2.9 -3.41729e-07 0)
(2.9 -1.48991e-07 0)
(2.9 -2.01426e-07 0)
(2.9 -2.73499e-07 0)
(2.9 -2.45133e-07 0)
(2.9 -4.02972e-07 0)
(2.9 -5.11527e-07 0)
(2.9 -3.2249e-07 0)
(2.9 1.14444e-07 0)
(2.9 8.46487e-08 0)
(2.9 9.48343e-08 0)
(2.9 -1.98116e-07 0)
(2.9 -4.32764e-07 0)
(2.9 -3.44321e-07 0)
(2.9 -1.76781e-07 0)
(2.9 1.81828e-07 0)
(2.9 5.42073e-08 0)
(2.9 -5.9194e-08 0)
(2.9 -1.81967e-08 0)
(2.9 -8.4793e-08 0)
(2.9 -2.4243e-07 0)
(2.9 -2.31613e-07 0)
(2.9 -2.94638e-07 0)
(2.9 -3.99043e-07 0)
(2.9 -2.86709e-07 0)
(2.9 -3.30147e-07 0)
(2.9 -5.18677e-07 0)
(2.9 2.38073e-08 0)
(2.9 1.26366e-07 0)
(2.9 -4.0128e-09 0)
(2.9 1.47662e-07 0)
(2.9 -6.51058e-09 0)
(2.9 -1.2027e-07 0)
(2.9 -3.99619e-08 0)
(2.9 5.65336e-08 0)
(2.9 1.84784e-08 0)
(2.9 -9.29191e-08 0)
(2.9 5.7674e-08 0)
(2.9 1.41956e-07 0)
(2.9 3.31186e-07 0)
(2.9 7.80447e-08 0)
(2.9 -1.57123e-08 0)
(2.9 -1.6105e-07 0)
(2.9 -1.91545e-07 0)
(2.9 -2.97774e-08 0)
(2.9 1.74762e-07 0)
(2.9 -5.67911e-08 0)
(2.9 -2.66276e-07 0)
(2.9 -3.79846e-07 0)
(2.9 -3.96769e-07 0)
(2.9 -4.07423e-07 0)
(2.9 -3.71991e-07 0)
(2.9 -1.84946e-07 0)
(2.9 -1.39193e-08 0)
(2.9 1.40746e-07 0)
(2.9 -2.49606e-08 0)
(2.9 -1.73092e-07 0)
(2.9 -3.62961e-07 0)
(2.9 -3.20127e-07 0)
(2.9 -2.95201e-07 0)
(2.9 -2.58127e-07 0)
(2.9 -3.19721e-07 0)
(2.9 -5.37727e-07 0)
(2.9 -5.96107e-07 0)
(2.9 -6.27098e-07 0)
(2.9 -8.41232e-07 0)
(2.9 -8.95755e-07 0)
(2.9 -5.95781e-07 0)
(2.9 -3.31479e-08 0)
(2.9 3.13492e-07 0)
(2.9 -2.28346e-08 0)
(2.9 -4.19201e-07 0)
(2.9 -5.18095e-07 0)
(2.9 -4.85005e-07 0)
(2.9 -2.88023e-07 0)
(2.9 -8.63665e-08 0)
(2.9 -3.48439e-08 0)
(2.9 -2.74704e-07 0)
(2.9 -6.51856e-08 0)
(2.9 -3.59282e-08 0)
(2.9 -1.53608e-08 0)
(2.9 -3.72851e-07 0)
(2.9 -6.03524e-07 0)
(2.9 -7.3555e-07 0)
(2.9 -6.59735e-07 0)
(2.9 -7.02146e-07 0)
(2.9 -8.23397e-07 0)
(2.9 -2.52976e-08 0)
(2.9 -5.16472e-08 0)
(2.9 -4.52374e-08 0)
(2.9 -7.35815e-08 0)
(2.9 -1.71194e-07 0)
(2.9 -1.54132e-07 0)
(2.9 -1.3077e-07 0)
(2.9 -3.48718e-08 0)
(2.9 -3.78591e-08 0)
(2.9 -9.83562e-08 0)
(2.9 1.01006e-07 0)
(2.9 2.88141e-07 0)
(2.9 3.38878e-07 0)
(2.9 8.33884e-08 0)
(2.9 -4.79167e-08 0)
(2.9 -2.53062e-07 0)
(2.9 -1.30704e-07 0)
(2.9 1.99926e-07 0)
(2.9 1.32232e-07 0)
(2.9 -1.86368e-07 0)
(2.9 -4.58093e-07 0)
(2.9 -5.13985e-07 0)
(2.9 -4.43006e-07 0)
(2.9 -2.754e-07 0)
(2.9 -1.39286e-07 0)
(2.9 1.68186e-09 0)
(2.9 5.97017e-08 0)
(2.9 2.76615e-07 0)
(2.9 5.77476e-08 0)
(2.9 -2.18058e-07 0)
(2.9 -3.6287e-07 0)
(2.9 -3.20713e-07 0)
(2.9 -3.75595e-07 0)
(2.9 -2.00559e-07 0)
(2.9 -5.0166e-07 0)
(2.9 -7.47646e-07 0)
(2.9 -7.90922e-07 0)
(2.9 -9.04097e-07 0)
(2.9 -1.07825e-06 0)
(2.9 -1.08556e-06 0)
(2.9 -7.45086e-07 0)
(2.9 -1.60455e-07 0)
(2.9 2.52333e-07 0)
(2.9 -1.03479e-07 0)
(2.9 -4.81554e-07 0)
(2.9 -4.86581e-07 0)
(2.9 -5.23455e-07 0)
(2.9 -2.61809e-07 0)
(2.9 -5.46237e-08 0)
(2.9 -8.65403e-08 0)
(2.9 -1.5492e-07 0)
(2.9 9.50838e-09 0)
(2.9 -2.33666e-08 0)
(2.9 -3.46368e-08 0)
(2.9 -5.50034e-07 0)
(2.9 -8.42863e-07 0)
(2.9 -9.3489e-07 0)
(2.9 -8.94729e-07 0)
(2.9 -8.97374e-07 0)
(2.9 -9.05787e-07 0)
(2.9 -3.45078e-08 0)
(2.9 -1.77439e-07 0)
(2.9 -9.02523e-08 0)
(2.9 -2.74406e-07 0)
(2.9 -1.93671e-07 0)
(2.9 -1.74503e-07 0)
(2.9 -2.68789e-07 0)
(2.9 -1.05746e-07 0)
(2.9 -7.09069e-08 0)
(2.9 -2.08133e-07 0)
(2.9 5.81713e-08 0)
(2.9 3.57256e-07 0)
(2.9 3.37301e-07 0)
(2.9 1.2949e-07 0)
(2.9 -1.1662e-09 0)
(2.9 -9.63962e-08 0)
(2.9 -8.44892e-08 0)
(2.9 8.92399e-08 0)
(2.9 3.52197e-08 0)
(2.9 -2.71878e-07 0)
(2.9 -5.20431e-07 0)
(2.9 -5.39411e-07 0)
(2.9 -4.25296e-07 0)
(2.9 -3.66889e-07 0)
(2.9 -1.92674e-07 0)
(2.9 1.55367e-07 0)
(2.9 2.16061e-07 0)
(2.9 3.37602e-07 0)
(2.9 9.91844e-08 0)
(2.9 -2.0399e-07 0)
(2.9 -2.96976e-07 0)
(2.9 -2.30858e-07 0)
(2.9 -1.72707e-07 0)
(2.9 -3.71989e-07 0)
(2.9 -5.40063e-07 0)
(2.9 -7.50585e-07 0)
(2.9 -8.28887e-07 0)
(2.9 -9.45918e-07 0)
(2.9 -1.05192e-06 0)
(2.9 -1.06964e-06 0)
(2.9 -7.98606e-07 0)
(2.9 -3.34008e-07 0)
(2.9 1.28157e-08 0)
(2.9 -8.05434e-08 0)
(2.9 -1.8998e-07 0)
(2.9 -3.55284e-07 0)
(2.9 -4.40595e-07 0)
(2.9 -1.72326e-07 0)
(2.9 5.6318e-09 0)
(2.9 1.5728e-09 0)
(2.9 -2.34748e-08 0)
(2.9 1.44861e-07 0)
(2.9 -9.54957e-08 0)
(2.9 -2.20494e-07 0)
(2.9 -7.60102e-07 0)
(2.9 -8.56034e-07 0)
(2.9 -9.32026e-07 0)
(2.9 -9.82237e-07 0)
(2.9 -8.18558e-07 0)
(2.9 -8.54809e-07 0)
(2.9 -1.72244e-08 0)
(2.9 -9.16614e-08 0)
(2.9 -1.25241e-07 0)
(2.9 -1.63683e-07 0)
(2.9 -1.26937e-07 0)
(2.9 -1.88098e-07 0)
(2.9 -1.6886e-07 0)
(2.9 -1.66786e-07 0)
(2.9 -1.2145e-07 0)
(2.9 -1.28139e-07 0)
(2.9 -4.94485e-08 0)
(2.9 1.49539e-07 0)
(2.9 3.71018e-07 0)
(2.9 1.67712e-07 0)
(2.9 1.38399e-08 0)
(2.9 9.06719e-08 0)
(2.9 -1.34103e-07 0)
(2.9 -6.3637e-08 0)
(2.9 4.32654e-08 0)
(2.9 -2.77659e-07 0)
(2.9 -5.48424e-07 0)
(2.9 -5.02547e-07 0)
(2.9 -3.66655e-07 0)
(2.9 -1.90235e-07 0)
(2.9 -1.22118e-08 0)
(2.9 2.42535e-07 0)
(2.9 4.88191e-07 0)
(2.9 4.54658e-07 0)
(2.9 1.6369e-07 0)
(2.9 9.11501e-08 0)
(2.9 -2.35165e-07 0)
(2.9 -1.02723e-07 0)
(2.9 3.31965e-08 0)
(2.9 -2.08157e-07 0)
(2.9 -4.34547e-07 0)
(2.9 -6.86033e-07 0)
(2.9 -7.59643e-07 0)
(2.9 -8.61303e-07 0)
(2.9 -9.0255e-07 0)
(2.9 -9.80969e-07 0)
(2.9 -6.0922e-07 0)
(2.9 -2.46397e-07 0)
(2.9 -6.10453e-08 0)
(2.9 1.53542e-08 0)
(2.9 1.18635e-07 0)
(2.9 -2.01505e-07 0)
(2.9 -8.61263e-08 0)
(2.9 -8.45805e-08 0)
(2.9 1.42073e-07 0)
(2.9 1.08329e-07 0)
(2.9 3.22624e-08 0)
(2.9 3.30994e-08 0)
(2.9 -2.20395e-07 0)
(2.9 -2.82866e-07 0)
(2.9 -6.0972e-07 0)
(2.9 -6.67113e-07 0)
(2.9 -8.65272e-07 0)
(2.9 -7.10083e-07 0)
(2.9 -6.06499e-07 0)
(2.9 -8.22838e-07 0)
(2.9 -3.61387e-08 0)
(2.9 -3.30169e-08 0)
(2.9 -1.318e-07 0)
(2.9 -4.09454e-08 0)
(2.9 -5.03861e-08 0)
(2.9 -2.49235e-07 0)
(2.9 -6.80991e-08 0)
(2.9 -2.31818e-07 0)
(2.9 -1.43428e-07 0)
(2.9 -1.18798e-07 0)
(2.9 -1.76363e-07 0)
(2.9 -1.26635e-08 0)
(2.9 2.05476e-07 0)
(2.9 1.60329e-07 0)
(2.9 -3.77222e-08 0)
(2.9 -2.6584e-08 0)
(2.9 -3.31598e-08 0)
(2.9 -1.43656e-07 0)
(2.9 -6.93424e-08 0)
(2.9 -2.66499e-07 0)
(2.9 -6.25074e-07 0)
(2.9 -4.45596e-07 0)
(2.9 -4.04724e-07 0)
(2.9 -5.09777e-08 0)
(2.9 1.36719e-07 0)
(2.9 2.3542e-07 0)
(2.9 5.01481e-07 0)
(2.9 3.4744e-07 0)
(2.9 1.58642e-07 0)
(2.9 1.43575e-07 0)
(2.9 -2.67262e-07 0)
(2.9 -2.41886e-08 0)
(2.9 -9.73643e-08 0)
(2.9 -3.43921e-08 0)
(2.9 -3.09061e-07 0)
(2.9 -6.6944e-07 0)
(2.9 -6.98777e-07 0)
(2.9 -5.12541e-07 0)
(2.9 -7.55481e-07 0)
(2.9 -7.61565e-07 0)
(2.9 -5.18406e-07 0)
(2.9 -9.72438e-08 0)
(2.9 -3.16294e-08 0)
(2.9 1.1666e-07 0)
(2.9 1.15254e-07 0)
(2.9 3.3872e-08 0)
(2.9 2.13158e-07 0)
(2.9 -9.05741e-08 0)
(2.9 3.06581e-07 0)
(2.9 1.5754e-07 0)
(2.9 5.81791e-08 0)
(2.9 -7.7702e-08 0)
(2.9 -6.42054e-08 0)
(2.9 -2.09784e-07 0)
(2.9 -4.12233e-07 0)
(2.9 -4.27682e-07 0)
(2.9 -6.1074e-07 0)
(2.9 -4.61161e-07 0)
(2.9 -3.82732e-07 0)
(2.9 -6.10585e-07 0)
(2.9 -5.56986e-08 0)
(2.9 -2.13809e-07 0)
(2.9 -1.50814e-07 0)
(2.9 7.0767e-08 0)
(2.9 -2.49521e-08 0)
(2.9 -1.49562e-07 0)
(2.9 -2.06275e-07 0)
(2.9 -3.15513e-07 0)
(2.9 -1.70198e-07 0)
(2.9 -1.31341e-07 0)
(2.9 -2.01124e-07 0)
(2.9 -9.61816e-08 0)
(2.9 1.24428e-07 0)
(2.9 1.40594e-07 0)
(2.9 5.24767e-08 0)
(2.9 6.21848e-09 0)
(2.9 1.01739e-07 0)
(2.9 -1.69192e-07 0)
(2.9 -7.33581e-08 0)
(2.9 -2.1627e-07 0)
(2.9 -4.94067e-07 0)
(2.9 -4.42872e-07 0)
(2.9 -2.75241e-07 0)
(2.9 -1.68608e-07 0)
(2.9 -1.047e-09 0)
(2.9 2.02068e-07 0)
(2.9 3.50445e-07 0)
(2.9 2.57831e-07 0)
(2.9 1.5176e-07 0)
(2.9 -4.66907e-10 0)
(2.9 -1.7753e-07 0)
(2.9 -1.59626e-08 0)
(2.9 -3.37726e-08 0)
(2.9 -1.44823e-07 0)
(2.9 -2.05266e-07 0)
(2.9 -5.02132e-07 0)
(2.9 -5.10192e-07 0)
(2.9 -1.86525e-07 0)
(2.9 -5.1274e-07 0)
(2.9 -4.73865e-07 0)
(2.9 -5.30776e-07 0)
(2.9 -1.39142e-07 0)
(2.9 1.08338e-08 0)