/*--------------------------------*- C++ -*----------------------------------*\
| =========                 |                                                 |
| \\      /  F ield         | OpenFOAM: The Open Source CFD Toolbox           |
|  \\    /   O peration     | Version:  2412                                  |
|   \\  /    A nd           | Website:  www.openfoam.com                      |
|    \\/     M anipulation  |                                                 |
\*---------------------------------------------------------------------------*/
FoamFile
{
    version     2.0;
    format      ascii;
    arch        "LSB;label=32;scalar=64";
    class       volVectorField;
    location    "0.005";
    object      U;
}
// * * * * * * * * * * * * * * * * * * * * * * * * * * * * * * * * * * * * * //

dimensions      [0 1 -1 0 0 0 0];

internalField   nonuniform List<vector> 
1800
(
(2.9 -5.50639e-08 0)
(2.9 1.25282e-09 0)
(2.9 6.00572e-08 0)
(2.9 6.38481e-08 0)
(2.9 1.64993e-07 0)
(2.9 5.28288e-08 0)
(2.9 2.02495e-07 0)
(2.9 -5.68474e-08 0)
(2.9 3.94393e-08 0)
(2.9 1.02898e-07 0)
(2.9 1.70985e-07 0)
(2.9 -2.41474e-08 0)
(2.9 1.36561e-09 0)
(2.9 -1.45837e-07 0)
(2.9 1.40509e-08 0)
(2.9 2.4354e-07 0)
(2.9 2.94714e-07 0)
(2.9 8.41189e-08 0)
(2.9 1.66995e-08 0)
(2.9 -6.84959e-08 0)
(2.9 -7.89398e-08 0)
(2.9 -2.03113e-07 0)
(2.9 -1.69254e-07 0)
(2.9 -2.50325e-07 0)
(2.9 -8.46638e-08 0)
(2.9 1.73459e-07 0)
(2.9 2.26885e-08 0)
(2.9 -2.55266e-08 0)
(2.9 -5.97493e-08 0)
(2.9 -7.98553e-08 0)
(2.9 -1.44923e-07 0)
(2.9 -1.82165e-07 0)
(2.9 -2.43276e-07 0)
(2.9 -2.40051e-07 0)
(2.9 -1.53431e-07 0)
(2.9 -2.06763e-08 0)
(2.9 1.20315e-07 0)
(2.9 -6.76618e-08 0)
(2.9 -6.85533e-08 0)
(2.9 -3.98397e-08 0)
(2.9 -5.63317e-08 0)
(2.9 -5.09463e-08 0)
(2.9 -1.38622e-07 0)
(2.9 -1.22787e-07 0)
(2.9 1.44117e-08 0)
(2.9 -7.78816e-08 0)
(2.9 -1.0054e-07 0)
(2.9 -1.13779e-07 0)
(2.9 -1.41479e-07 0)
(2.9 -7.39746e-08 0)
(2.9 4.2833e-08 0)
(2.9 1.34613e-07 0)
(2.9 -4.1204e-08 0)
(2.9 -9.03303e-08 0)
(2.9 -3.52296e-08 0)
(2.9 -1.69661e-08 0)
(2.9 -2.12244e-08 0)
(2.9 1.67329e-07 0)
(2.9 8.55569e-08 0)
(2.9 7.20789e-08 0)
(2.9 3.47488e-08 0)
(2.9 -1.14185e-07 0)
(2.9 4.54904e-08 0)
(2.9 5.54239e-08 0)
(2.9 1.34657e-07 0)
(2.9 8.89475e-08 0)
(2.9 2.90458e-07 0)
(2.9 6.291e-08 0)
(2.9 2.0104e-08 0)
(2.9 1.41693e-07 0)
(2.9 4.29059e-07 0)
(2.9 1.2648e-07 0)
(2.9 -5.76696e-08 0)
(2.9 -9.4299e-08 0)
(2.9 8.1291e-08 0)
(2.9 4.35907e-07 0)
(2.9 5.41867e-07 0)
(2.9 1.2431e-07 0)
(2.9 8.56272e-08 0)
(2.9 -1.37185e-07 0)
(2.9 -1.46024e-07 0)
(2.9 -4.21176e-07 0)
(2.9 -3.00983e-07 0)
(2.9 -3.86318e-07 0)
(2.9 -9.19213e-08 0)
(2.9 1.95961e-07 0)
(2.9 2.29338e-08 0)
(2.9 -1.03541e-07 0)
(2.9 -2.19499e-07 0)
(2.9 -2.06797e-07 0)
(2.9 -3.18642e-07 0)
(2.9 -2.94663e-07 0)
(2.9 -4.15563e-07 0)
(2.9 -4.73721e-07 0)
(2.9 -2.17522e-07 0)
(2.9 3.91998e-08 0)
(2.9 9.9108e-08 0)
(2.9 -6.12195e-08 0)
(2.9 -1.42036e-07 0)
(2.9 -1.01522e-07 0)
(2.9 -1.39856e-07 0)
(2.9 -1.68768e-07 0)
(2.9 -3.94555e-07 0)
(2.9 -2.70433e-07 0)
(2.9 -1.99809e-07 0)
(2.9 -2.75118e-07 0)
(2.9 -2.97232e-07 0)
(2.9 -2.11032e-07 0)
(2.9 -2.44992e-07 0)
(2.9 -1.13613e-07 0)
(2.9 1.79049e-07 0)
(2.9 1.87113e-07 0)
(2.9 -4.47962e-10 0)
(2.9 -1.06461e-07 0)
(2.9 -5.25804e-08 0)
(2.9 -1.82255e-07 0)
(2.9 -8.53641e-08 0)
(2.9 3.37828e-07 0)
(2.9 2.58518e-07 0)
(2.9 1.0529e-07 0)
(2.9 1.38195e-07 0)
(2.9 5.17295e-09 0)
(2.9 -3.05486e-08 0)
(2.9 1.17583e-08 0)
(2.9 1.74547e-07 0)
(2.9 6.41617e-08 0)
(2.9 1.53727e-07 0)
(2.9 1.42697e-07 0)
(2.9 -3.68653e-08 0)
(2.9 9.09267e-08 0)
(2.9 3.94666e-07 0)
(2.9 2.15767e-07 0)
(2.9 -1.38965e-07 0)
(2.9 -1.47778e-08 0)
(2.9 1.10934e-07 0)
(2.9 5.79568e-07 0)
(2.9 6.84124e-07 0)
(2.9 2.92007e-07 0)
(2.9 2.56936e-07 0)
(2.9 1.017e-07 0)
(2.9 -1.31199e-07 0)
(2.9 -4.01403e-07 0)
(2.9 -3.06858e-07 0)
(2.9 -3.13313e-07 0)
(2.9 1.94052e-08 0)
(2.9 2.37544e-07 0)
(2.9 2.99955e-07 0)
(2.9 1.41847e-07 0)
(2.9 -4.23248e-08 0)
(2.9 9.19368e-08 0)
(2.9 -1.13101e-07 0)
(2.9 -1.69989e-07 0)
(2.9 -3.56828e-07 0)
(2.9 -2.53502e-07 0)
(2.9 -1.16468e-07 0)
(2.9 9.7104e-08 0)
(2.9 1.08049e-07 0)
(2.9 4.78948e-08 0)
(2.9 -2.3959e-07 0)
(2.9 -6.71877e-08 0)
(2.9 1.2841e-07 0)
(2.9 5.38549e-08 0)
(2.9 -3.1691e-07 0)
(2.9 -3.09832e-07 0)
(2.9 -3.81565e-07 0)
(2.9 -4.49154e-07 0)
(2.9 -3.94884e-07 0)
(2.9 -1.17767e-07 0)
(2.9 4.76477e-08 0)
(2.9 1.54154e-07 0)
(2.9 4.07605e-07 0)
(2.9 3.35287e-07 0)
(2.9 7.38284e-08 0)
(2.9 -1.07226e-07 0)
(2.9 -3.29321e-08 0)
(2.9 -7.21257e-08 0)
(2.9 1.92795e-07 0)
(2.9 3.4836e-07 0)
(2.9 3.7419e-07 0)
(2.9 3.04239e-07 0)
(2.9 4.78024e-08 0)
(2.9 1.29402e-07 0)
(2.9 -5.19919e-08 0)
(2.9 3.41863e-08 0)
(2.9 3.3763e-07 0)
(2.9 1.00408e-08 0)
(2.9 5.82705e-08 0)
(2.9 -2.60229e-09 0)
(2.9 -6.13931e-08 0)
(2.9 -5.01813e-09 0)
(2.9 1.4786e-07 0)
(2.9 7.97349e-09 0)
(2.9 -2.54828e-07 0)
(2.9 -3.10863e-07 0)
(2.9 8.0548e-08 0)
(2.9 5.40455e-07 0)
(2.9 6.71444e-07 0)
(2.9 6.42052e-07 0)
(2.9 4.59596e-07 0)
(2.9 6.09845e-07 0)
(2.9 1.92858e-07 0)
(2.9 -2.20063e-08 0)
(2.9 -2.10008e-07 0)
(2.9 -2.19986e-07 0)
(2.9 1.45581e-07 0)
(2.9 5.18806e-07 0)
(2.9 5.90765e-07 0)
(2.9 4.45977e-07 0)
(2.9 5.21797e-07 0)
(2.9 4.34517e-07 0)
(2.9 3.36919e-07 0)
(2.9 3.75065e-08 0)
(2.9 2.15692e-08 0)
(2.9 4.0705e-07 0)
(2.9 3.29591e-07 0)
(2.9 3.88013e-07 0)
(2.9 4.31813e-07 0)
(2.9 2.23087e-07 0)
(2.9 -6.60791e-08 0)
(2.9 -3.67296e-09 0)
(2.9 3.75297e-07 0)
(2.9 2.67711e-07 0)
(2.9 1.15883e-07 0)
(2.9 -3.12217e-07 0)
(2.9 -1.39771e-07 0)
(2.9 -5.3624e-07 0)
(2.9 -4.05058e-07 0)
(2.9 5.57841e-08 0)
(2.9 5.76857e-07 0)
(2.9 5.69299e-07 0)
(2.9 6.13539e-07 0)
(2.9 7.70238e-07 0)
(2.9 3.49342e-07 0)
(2.9 1.97774e-07 0)
(2.9 7.32725e-08 0)
(2.9 3.42604e-07 0)
(2.9 5.33961e-07 0)
(2.9 3.01103e-07 0)
(2.9 3.87357e-07 0)
(2.9 6.88562e-07 0)
(2.9 1.72337e-08 0)
(2.9 4.43397e-08 0)
(2.9 -6.36114e-09 0)
(2.9 5.18378e-08 0)
(2.9 2.95696e-07 0)
(2.9 1.03506e-07 0)
(2.9 1.40362e-09 0)
(2.9 -6.65658e-08 0)
(2.9 -9.49892e-08 0)
(2.9 -1.16556e-07 0)
(2.9 -4.60593e-08 0)
(2.9 -1.77546e-07 0)
(2.9 -3.78151e-07 0)
(2.9 -3.57132e-07 0)
(2.9 -5.55582e-08 0)
(2.9 3.57964e-07 0)
(2.9 5.42391e-07 0)
(2.9 6.48827e-07 0)
(2.9 4.73715e-07 0)
(2.9 7.13446e-07 0)
(2.9 6.40732e-07 0)
(2.9 5.18295e-07 0)
(2.9 2.96964e-08 0)
(2.9 7.99164e-08 0)
(2.9 4.46753e-07 0)
(2.9 7.6513e-07 0)
(2.9 5.89966e-07 0)
(2.9 4.2387e-07 0)
(2.9 7.66094e-07 0)
(2.9 6.26741e-07 0)
(2.9 6.83459e-07 0)
(2.9 4.17671e-07 0)
(2.9 5.16218e-07 0)
(2.9 7.61415e-07 0)
(2.9 9.22354e-07 0)
(2.9 8.40011e-07 0)
(2.9 7.00018e-07 0)
(2.9 2.81611e-07 0)
(2.9 3.53688e-07 0)
(2.9 2.3326e-07 0)
(2.9 2.73836e-07 0)
(2.9 1.05977e-07 0)
(2.9 3.34754e-07 0)
(2.9 -1.14593e-07 0)
(2.9 -2.81061e-08 0)
(2.9 -3.20561e-07 0)
(2.9 -3.37802e-07 0)
(2.9 9.19712e-08 0)
(2.9 5.74978e-07 0)
(2.9 6.83323e-07 0)
(2.9 5.74232e-07 0)
(2.9 6.98849e-07 0)
(2.9 3.97444e-07 0)
(2.9 5.07971e-07 0)
(2.9 4.66979e-07 0)
(2.9 7.61526e-07 0)
(2.9 5.03603e-07 0)
(2.9 7.46684e-08 0)
(2.9 3.01696e-07 0)
(2.9 7.09046e-07 0)
(2.9 -1.49155e-09 0)
(2.9 2.89235e-08 0)
(2.9 2.42479e-08 0)
(2.9 1.31394e-08 0)
(2.9 1.93302e-07 0)
(2.9 5.01759e-08 0)
(2.9 -1.75358e-08 0)
(2.9 -1.55294e-07 0)
(2.9 -2.09187e-07 0)
(2.9 -2.09906e-07 0)
(2.9 -2.66092e-07 0)
(2.9 -3.65476e-07 0)
(2.9 -5.27948e-07 0)
(2.9 -5.0715e-07 0)
(2.9 -2.92708e-07 0)
(2.9 2.00478e-07 0)
(2.9 4.20144e-07 0)
(2.9 3.91664e-07 0)
(2.9 2.3033e-07 0)
(2.9 4.02874e-07 0)
(2.9 6.07852e-07 0)
(2.9 6.14854e-07 0)
(2.9 3.42007e-07 0)
(2.9 5.1542e-07 0)
(2.9 5.88031e-07 0)
(2.9 7.85385e-07 0)
(2.9 6.2864e-07 0)
(2.9 5.73345e-07 0)
(2.9 5.84784e-07 0)
(2.9 6.27398e-07 0)
(2.9 6.47234e-07 0)
(2.9 5.90849e-07 0)
(2.9 8.04719e-07 0)
(2.9 9.44113e-07 0)
(2.9 9.84027e-07 0)
(2.9 8.12276e-07 0)
(2.9 5.66058e-07 0)
(2.9 1.11725e-07 0)
(2.9 4.06369e-07 0)
(2.9 3.20885e-07 0)
(2.9 2.21979e-07 0)
(2.9 2.90044e-07 0)
(2.9 3.26083e-07 0)
(2.9 3.34482e-07 0)
(2.9 1.62485e-07 0)
(2.9 -6.18109e-08 0)
(2.9 -3.05416e-07 0)
(2.9 -2.45148e-08 0)
(2.9 4.33783e-07 0)
(2.9 6.71009e-07 0)
(2.9 2.9362e-07 0)
(2.9 2.60423e-07 0)
(2.9 3.39672e-07 0)
(2.9 5.04232e-07 0)
(2.9 7.32042e-07 0)
(2.9 8.30041e-07 0)
(2.9 4.00209e-07 0)
(2.9 1.49513e-07 0)
(2.9 2.28277e-07 0)
(2.9 4.72432e-07 0)
(2.9 -6.51041e-08 0)
(2.9 -3.88439e-08 0)
(2.9 1.51352e-08 0)
(2.9 -1.15979e-07 0)
(2.9 3.97256e-08 0)
(2.9 5.66594e-08 0)
(2.9 -2.95874e-09 0)
(2.9 -5.52921e-08 0)
(2.9 -3.54112e-07 0)
(2.9 -2.45837e-07 0)
(2.9 -1.82883e-07 0)
(2.9 -5.58513e-07 0)
(2.9 -6.8177e-07 0)
(2.9 -6.70078e-07 0)
(2.9 -4.9734e-07 0)
(2.9 -1.73036e-07 0)
(2.9 9.7164e-08 0)
(2.9 9.47105e-08 0)
(2.9 -1.35811e-07 0)
(2.9 8.12916e-08 0)
(2.9 2.54738e-07 0)
(2.9 3.21817e-07 0)
(2.9 4.68356e-07 0)
(2.9 4.77255e-07 0)
(2.9 3.06002e-07 0)
(2.9 5.51309e-07 0)
(2.9 5.58631e-07 0)
(2.9 4.90868e-07 0)
(2.9 2.64038e-07 0)
(2.9 2.37459e-07 0)
(2.9 2.81839e-07 0)
(2.9 3.19718e-07 0)
(2.9 6.75436e-07 0)
(2.9 9.74367e-07 0)
(2.9 6.17995e-07 0)
(2.9 4.11759e-07 0)
(2.9 1.19058e-07 0)
(2.9 -1.49763e-07 0)
(2.9 1.50056e-07 0)
(2.9 6.52493e-08 0)
(2.9 1.92609e-07 0)
(2.9 4.90675e-07 0)
(2.9 2.74868e-07 0)
(2.9 4.85063e-07 0)
(2.9 3.45508e-07 0)
(2.9 -6.30225e-08 0)
(2.9 -3.68282e-07 0)
(2.9 -1.09436e-07 0)
(2.9 3.2698e-07 0)
(2.9 3.99407e-07 0)
(2.9 -6.40454e-08 0)
(2.9 -5.74806e-08 0)
(2.9 3.11391e-07 0)
(2.9 4.58328e-07 0)
(2.9 5.49819e-07 0)
(2.9 5.25105e-07 0)
(2.9 3.34548e-07 0)
(2.9 2.82715e-07 0)
(2.9 1.79803e-07 0)
(2.9 3.24797e-07 0)
(2.9 1.18532e-07 0)
(2.9 1.54134e-07 0)
(2.9 7.12121e-08 0)
(2.9 2.80176e-08 0)
(2.9 1.74963e-08 0)
(2.9 1.66758e-07 0)
(2.9 -7.2381e-08 0)
(2.9 1.38373e-08 0)
(2.9 -2.13505e-07 0)
(2.9 -2.42205e-07 0)
(2.9 -4.39652e-08 0)
(2.9 -4.83079e-07 0)
(2.9 -7.1299e-07 0)
(2.9 -3.39921e-07 0)
(2.9 -6.857e-07 0)
(2.9 -3.63639e-07 0)
(2.9 -1.71808e-07 0)
(2.9 -1.72179e-07 0)
(2.9 -1.82667e-07 0)
(2.9 -1.73396e-07 0)
(2.9 -9.08508e-08 0)
(2.9 -1.62671e-08 0)
(2.9 2.44029e-07 0)
(2.9 1.7571e-07 0)
(2.9 2.69635e-07 0)
(2.9 3.27689e-07 0)
(2.9 3.54224e-07 0)
(2.9 3.73406e-07 0)
(2.9 3.10853e-07 0)
(2.9 1.66377e-07 0)
(2.9 -1.17656e-08 0)
(2.9 9.51743e-08 0)
(2.9 5.57571e-07 0)
(2.9 7.37928e-07 0)
(2.9 4.77475e-07 0)
(2.9 6.19971e-08 0)
(2.9 -1.40343e-07 0)
(2.9 -1.39704e-07 0)
(2.9 -1.27972e-09 0)
(2.9 1.11006e-07 0)
(2.9 1.46537e-07 0)
(2.9 4.12845e-07 0)
(2.9 4.83346e-07 0)
(2.9 7.06405e-07 0)
(2.9 5.7466e-07 0)
(2.9 2.51155e-07 0)
(2.9 -1.03014e-07 0)
(2.9 -1.03551e-07 0)
(2.9 -4.41931e-09 0)
(2.9 -8.5602e-08 0)
(2.9 -3.69468e-07 0)
(2.9 -3.58697e-07 0)
(2.9 3.66465e-09 0)
(2.9 3.63533e-07 0)
(2.9 5.83434e-07 0)
(2.9 5.60563e-07 0)
(2.9 2.89497e-07 0)
(2.9 1.50019e-07 0)
(2.9 9.78899e-08 0)
(2.9 2.31902e-07 0)
(2.9 2.80742e-07 0)
(2.9 3.53014e-07 0)
(2.9 1.53189e-07 0)
(2.9 2.28979e-07 0)
(2.9 5.86893e-08 0)
(2.9 5.15595e-09 0)
(2.9 -2.21373e-07 0)
(2.9 -1.34825e-07 0)
(2.9 -9.84554e-08 0)
(2.9 -2.6523e-07 0)
(2.9 -1.90494e-07 0)
(2.9 -3.41008e-07 0)
(2.9 -6.5985e-07 0)
(2.9 -1.54769e-07 0)
(2.9 -6.16177e-07 0)
(2.9 -4.21843e-07 0)
(2.9 -4.11403e-07 0)
(2.9 -3.11635e-07 0)
(2.9 -1.32662e-07 0)
(2.9 -3.62353e-07 0)
(2.9 -3.64601e-07 0)
(2.9 -2.757e-07 0)
(2.9 -1.46309e-07 0)
(2.9 -3.94576e-08 0)
(2.9 2.17132e-07 0)
(2.9 8.7192e-08 0)
(2.9 1.70427e-07 0)
(2.9 4.19961e-07 0)
(2.9 3.99472e-07 0)
(2.9 1.07451e-07 0)
(2.9 -1.9561e-07 0)
(2.9 -5.75407e-08 0)
(2.9 5.37705e-07 0)
(2.9 4.6452e-07 0)
(2.9 3.07121e-07 0)
(2.9 -1.77779e-07 0)
(2.9 -3.01822e-07 0)
(2.9 -1.49413e-07 0)
(2.9 -1.3541e-07 0)
(2.9 1.68224e-07 0)
(2.9 9.19085e-08 0)
(2.9 3.96418e-07 0)
(2.9 6.50118e-07 0)
(2.9 9.20701e-07 0)
(2.9 7.06583e-07 0)
(2.9 5.41653e-07 0)
(2.9 1.04461e-07 0)
(2.9 -7.75165e-08 0)
(2.9 -2.26065e-07 0)
(2.9 -3.8345e-07 0)
(2.9 -6.06195e-07 0)
(2.9 -6.16612e-07 0)
(2.9 -2.19032e-07 0)
(2.9 2.04889e-07 0)
(2.9 5.29612e-07 0)
(2.9 5.68102e-07 0)
(2.9 2.1311e-07 0)
(2.9 6.42622e-08 0)
(2.9 -1.55459e-08 0)
(2.9 1.8383e-07 0)
(2.9 1.70991e-07 0)
(2.9 2.63546e-07 0)
(2.9 1.56927e-07 0)
(2.9 1.41815e-07 0)
(2.9 7.91303e-08 0)
(2.9 -8.02788e-08 0)
(2.9 -3.50561e-07 0)
(2.9 -2.69122e-07 0)
(2.9 -2.27566e-07 0)
(2.9 -4.38887e-07 0)
(2.9 -2.91527e-07 0)
(2.9 -2.59505e-07 0)
(2.9 -4.13505e-07 0)
(2.9 -1.85866e-07 0)
(2.9 -2.10999e-07 0)
(2.9 -3.95022e-07 0)
(2.9 -1.98615e-07 0)
(2.9 -3.75613e-07 0)
(2.9 -2.63851e-07 0)
(2.9 -4.75546e-07 0)
(2.9 -4.93064e-07 0)
(2.9 -4.67808e-07 0)
(2.9 -4.11443e-07 0)
(2.9 -3.31486e-07 0)
(2.9 -5.97316e-08 0)
(2.9 -1.43582e-07 0)
(2.9 9.6552e-08 0)
(2.9 2.69181e-07 0)
(2.9 1.45715e-07 0)
(2.9 -1.99196e-07 0)
(2.9 -3.60276e-07 0)
(2.9 -2.78464e-07 0)
(2.9 1.38845e-07 0)
(2.9 7.25304e-08 0)
(2.9 -5.8765e-08 0)
(2.9 -3.43424e-07 0)
(2.9 -5.20031e-07 0)
(2.9 -3.97443e-07 0)
(2.9 -3.64836e-07 0)
(2.9 1.77606e-08 0)
(2.9 -3.03654e-08 0)
(2.9 3.60566e-07 0)
(2.9 6.82966e-07 0)
(2.9 6.76699e-07 0)
(2.9 6.63493e-07 0)
(2.9 4.84652e-07 0)
(2.9 1.38123e-07 0)
(2.9 -5.34154e-08 0)
(2.9 -3.20133e-07 0)
(2.9 -5.3839e-07 0)
(2.9 -7.29394e-07 0)
(2.9 -7.2064e-07 0)
(2.9 -3.65673e-07 0)
(2.9 -2.39002e-08 0)
(2.9 1.64344e-07 0)
(2.9 2.2318e-07 0)
(2.9 1.26278e-07 0)
(2.9 -2.61884e-09 0)
(2.9 1.31873e-07 0)
(2.9 1.63172e-07 0)
(2.9 1.11936e-07 0)
(2.9 1.60193e-07 0)
(2.9 9.52886e-08 0)
(2.9 1.19507e-08 0)
(2.9 1.14092e-07 0)
(2.9 -1.33234e-07 0)
(2.9 -2.78062e-07 0)
(2.9 -3.95519e-07 0)
(2.9 -2.94511e-07 0)
(2.9 -4.70572e-07 0)
(2.9 -2.4291e-07 0)
(2.9 -5.50109e-08 0)
(2.9 -5.51969e-08 0)
(2.9 -1.5854e-07 0)
(2.9 1.70313e-08 0)
(2.9 -3.30493e-08 0)
(2.9 1.4454e-07 0)
(2.9 -1.55441e-07 0)
(2.9 -2.53635e-07 0)
(2.9 -2.14793e-07 0)
(2.9 -2.61716e-07 0)
(2.9 -3.30144e-07 0)
(2.9 -3.54575e-07 0)
(2.9 -3.52306e-07 0)
(2.9 -1.33051e-07 0)
(2.9 3.58174e-09 0)
(2.9 1.38717e-07 0)
(2.9 1.27026e-07 0)
(2.9 -5.23666e-08 0)
(2.9 -1.4368e-07 0)
(2.9 -2.50331e-07 0)
(2.9 -3.55832e-07 0)
(2.9 -3.56085e-07 0)
(2.9 -2.6753e-07 0)
(2.9 -2.15727e-07 0)
(2.9 -1.56403e-07 0)
(2.9 -4.4637e-07 0)
(2.9 -5.3569e-07 0)
(2.9 -2.77133e-07 0)
(2.9 -3.48339e-08 0)
(2.9 2.853e-08 0)
(2.9 2.40621e-07 0)
(2.9 5.70567e-07 0)
(2.9 3.0564e-07 0)
(2.9 5.43879e-07 0)
(2.9 3.33946e-07 0)
(2.9 3.8973e-07 0)
(2.9 -7.3397e-09 0)
(2.9 -4.01443e-08 0)
(2.9 -2.44001e-07 0)
(2.9 -3.2038e-07 0)
(2.9 -3.74682e-07 0)
(2.9 -1.43484e-07 0)
(2.9 -1.51633e-07 0)
(2.9 -1.03781e-07 0)
(2.9 -3.62067e-08 0)
(2.9 8.75669e-08 0)
(2.9 1.49463e-07 0)
(2.9 2.61821e-07 0)
(2.9 1.18836e-07 0)
(2.9 2.93534e-08 0)
(2.9 -2.17014e-08 0)
(2.9 2.83519e-08 0)
(2.9 1.58363e-07 0)
(2.9 1.79474e-07 0)
(2.9 -7.14201e-09 0)
(2.9 -2.52436e-07 0)
(2.9 -4.69557e-07 0)
(2.9 -3.51691e-07 0)
(2.9 -2.03449e-07 0)
(2.9 -1.12574e-07 0)
(2.9 6.43156e-08 0)
(2.9 2.18344e-07 0)
(2.9 2.60078e-07 0)
(2.9 3.35849e-07 0)
(2.9 2.26119e-07 0)
(2.9 1.81408e-07 0)
(2.9 3.95033e-08 0)
(2.9 -2.19229e-07 0)
(2.9 1.49965e-08 0)
(2.9 -7.0104e-08 0)
(2.9 -1.64378e-07 0)
(2.9 -2.74847e-07 0)
(2.9 -2.75545e-07 0)
(2.9 -5.00159e-08 0)
(2.9 2.13515e-07 0)
(2.9 1.86354e-07 0)
(2.9 -5.70042e-08 0)
(2.9 -2.30873e-07 0)
(2.9 -5.05252e-08 0)
(2.9 -1.18099e-07 0)
(2.9 -2.03751e-07 0)
(2.9 -4.24072e-07 0)
(2.9 -4.19806e-07 0)
(2.9 -2.12049e-07 0)
(2.9 8.01084e-08 0)
(2.9 -2.65814e-08 0)
(2.9 -2.60938e-07 0)
(2.9 -9.18311e-08 0)
(2.9 -8.62243e-08 0)
(2.9 3.10994e-08 0)
(2.9 5.14744e-08 0)
(2.9 2.09102e-07 0)
(2.9 1.64533e-07 0)
(2.9 1.34766e-07 0)
(2.9 9.41735e-08 0)
(2.9 4.21243e-07 0)
(2.9 2.72039e-07 0)
(2.9 2.04368e-07 0)
(2.9 1.31081e-07 0)
(2.9 2.00708e-07 0)
(2.9 2.56328e-07 0)
(2.9 1.48153e-07 0)
(2.9 -1.3654e-07 0)
(2.9 -2.42316e-07 0)
(2.9 -1.39733e-07 0)
(2.9 5.77612e-08 0)
(2.9 2.02968e-07 0)
(2.9 1.25348e-07 0)
(2.9 5.75461e-08 0)
(2.9 -1.08313e-07 0)
(2.9 -2.0061e-07 0)
(2.9 -3.30115e-08 0)
(2.9 3.01708e-07 0)
(2.9 1.67915e-07 0)
(2.9 2.90943e-08 0)
(2.9 -4.26386e-07 0)
(2.9 -5.63411e-07 0)
(2.9 -3.68895e-07 0)
(2.9 -1.44431e-07 0)
(2.9 -4.13604e-08 0)
(2.9 1.08301e-07 0)
(2.9 4.95929e-07 0)
(2.9 6.61623e-07 0)
(2.9 6.07895e-07 0)
(2.9 2.95292e-07 0)
(2.9 1.76335e-07 0)
(2.9 -2.57232e-08 0)
(2.9 6.52349e-08 0)
(2.9 -5.50479e-08 0)
(2.9 -1.57827e-07 0)
(2.9 -2.00893e-07 0)
(2.9 -6.56251e-08 0)
(2.9 -1.33548e-07 0)
(2.9 3.73525e-08 0)
(2.9 9.69493e-08 0)
(2.9 2.06955e-07 0)
(2.9 1.11578e-07 0)
(2.9 -2.5978e-08 0)
(2.9 -1.46205e-07 0)
(2.9 -3.03603e-07 0)
(2.9 -2.69919e-07 0)
(2.9 -2.60992e-07 0)
(2.9 -3.48427e-07 0)
(2.9 -1.74558e-07 0)
(2.9 5.87341e-09 0)
(2.9 1.08146e-07 0)
(2.9 1.46502e-08 0)
(2.9 -2.17358e-07 0)
(2.9 -1.29173e-07 0)
(2.9 -2.41113e-07 0)
(2.9 -9.26689e-08 0)
(2.9 -1.99653e-08 0)
(2.9 2.73063e-08 0)
(2.9 -1.18291e-07 0)
(2.9 -7.12975e-08 0)
(2.9 2.8833e-07 0)
(2.9 4.22269e-07 0)
(2.9 8.90113e-08 0)
(2.9 1.54552e-07 0)
(2.9 3.26265e-07 0)
(2.9 4.52045e-07 0)
(2.9 1.43398e-07 0)
(2.9 -4.02954e-08 0)
(2.9 -2.40582e-07 0)
(2.9 -1.53447e-07 0)
(2.9 5.89447e-09 0)
(2.9 -6.51812e-08 0)
(2.9 3.80519e-08 0)
(2.9 2.15383e-08 0)
(2.9 -1.98607e-07 0)
(2.9 -2.66535e-07 0)
(2.9 -8.23596e-08 0)
(2.9 1.62072e-07 0)
(2.9 3.82963e-08 0)
(2.9 -1.40348e-07 0)
(2.9 -2.88842e-07 0)
(2.9 -3.53202e-07 0)
(2.9 -2.70011e-07 0)
(2.9 -3.6575e-08 0)
(2.9 -1.1138e-09 0)
(2.9 8.35884e-08 0)
(2.9 7.54373e-07 0)
(2.9 6.67624e-07 0)
(2.9 4.24474e-07 0)
(2.9 5.15021e-07 0)
(2.9 1.91991e-07 0)
(2.9 2.18701e-07 0)
(2.9 3.97901e-07 0)
(2.9 2.77817e-07 0)
(2.9 2.16511e-07 0)
(2.9 1.77443e-07 0)
(2.9 2.30267e-07 0)
(2.9 2.54515e-07 0)
(2.9 7.35587e-08 0)
(2.9 2.39343e-07 0)
(2.9 2.48193e-07 0)
(2.9 3.67129e-07 0)
(2.9 2.03365e-07 0)
(2.9 -2.18309e-07 0)
(2.9 -1.28451e-07 0)
(2.9 -1.37352e-07 0)
(2.9 -1.53227e-07 0)
(2.9 -2.1542e-07 0)
(2.9 -1.63214e-07 0)
(2.9 2.16673e-07 0)
(2.9 2.4971e-07 0)
(2.9 -1.20207e-07 0)
(2.9 -7.35667e-08 0)
(2.9 -1.06184e-07 0)
(2.9 -1.42837e-07 0)
(2.9 -1.69608e-07 0)
(2.9 -2.26701e-07 0)
(2.9 -2.91518e-07 0)
(2.9 -1.88458e-07 0)
(2.9 -1.52462e-07 0)
(2.9 2.12627e-07 0)
(2.9 2.95526e-07 0)
(2.9 3.15282e-07 0)
(2.9 4.88633e-07 0)
(2.9 6.93074e-07 0)
(2.9 6.08065e-07 0)
(2.9 4.5014e-07 0)
(2.9 1.45242e-07 0)
(2.9 -2.60196e-07 0)
(2.9 -1.51034e-07 0)
(2.9 -4.61997e-08 0)
(2.9 -4.29345e-09 0)
(2.9 9.7329e-10 0)
(2.9 1.11835e-08 0)
(2.9 -1.77293e-07 0)
(2.9 -2.11623e-07 0)
(2.9 -1.05965e-07 0)
(2.9 5.33473e-08 0)
(2.9 -1.22872e-07 0)
(2.9 -2.69615e-07 0)
(2.9 -2.1292e-07 0)
(2.9 -1.06011e-07 0)
(2.9 -2.51614e-07 0)
(2.9 5.41581e-08 0)
(2.9 3.02915e-08 0)
(2.9 2.63454e-07 0)
(2.9 7.37149e-07 0)
(2.9 6.38287e-07 0)
(2.9 3.40363e-07 0)
(2.9 4.62223e-07 0)
(2.9 2.1763e-07 0)
(2.9 4.24249e-07 0)
(2.9 4.29436e-07 0)
(2.9 6.28392e-07 0)
(2.9 5.8723e-07 0)
(2.9 4.7597e-07 0)
(2.9 1.15934e-07 0)
(2.9 2.98661e-07 0)
(2.9 2.27078e-08 0)
(2.9 3.89029e-07 0)
(2.9 2.81325e-07 0)
(2.9 2.83509e-07 0)
(2.9 6.11758e-08 0)
(2.9 -5.23325e-08 0)
(2.9 1.71914e-07 0)
(2.9 1.18206e-07 0)
(2.9 3.71639e-08 0)
(2.9 -1.13904e-07 0)
(2.9 8.94705e-08 0)
(2.9 4.14634e-07 0)
(2.9 4.14548e-07 0)
(2.9 -5.5518e-08 0)
(2.9 1.06272e-07 0)
(2.9 -5.65319e-08 0)
(2.9 4.93119e-09 0)
(2.9 -2.54747e-07 0)
(2.9 -3.22913e-07 0)
(2.9 -4.38239e-07 0)
(2.9 -8.47366e-08 0)
(2.9 8.4854e-08 0)
(2.9 1.76941e-07 0)
(2.9 2.85176e-07 0)
(2.9 5.80874e-07 0)
(2.9 7.60284e-07 0)
(2.9 9.94282e-07 0)
(2.9 1.01381e-06 0)
(2.9 7.5985e-07 0)
(2.9 3.22856e-07 0)
(2.9 -9.00912e-08 0)
(2.9 -1.37526e-07 0)
(2.9 -8.90156e-08 0)
(2.9 1.31574e-07 0)
(2.9 -2.37932e-08 0)
(2.9 1.91129e-08 0)
(2.9 -9.993e-08 0)
(2.9 -1.03861e-07 0)
(2.9 -1.51994e-07 0)
(2.9 -4.05643e-08 0)
(2.9 -2.49909e-07 0)
(2.9 -3.59845e-07 0)
(2.9 -3.88649e-07 0)
(2.9 -1.96698e-07 0)
(2.9 -8.55921e-08 0)
(2.9 -1.65855e-07 0)
(2.9 -7.19644e-09 0)
(2.9 3.90618e-07 0)
(2.9 4.62035e-07 0)
(2.9 4.94876e-07 0)
(2.9 4.61796e-07 0)
(2.9 2.86284e-07 0)
(2.9 2.43955e-07 0)
(2.9 3.0035e-07 0)
(2.9 3.77897e-07 0)
(2.9 6.01251e-07 0)
(2.9 4.89721e-07 0)
(2.9 3.99057e-07 0)
(2.9 2.33471e-07 0)
(2.9 1.88044e-07 0)
(2.9 2.40084e-07 0)
(2.9 2.81956e-07 0)
(2.9 1.92697e-07 0)
(2.9 1.30978e-07 0)
(2.9 -7.16321e-08 0)
(2.9 1.38978e-07 0)
(2.9 2.04729e-07 0)
(2.9 3.30235e-07 0)
(2.9 1.54343e-07 0)
(2.9 2.60427e-07 0)
(2.9 2.76996e-07 0)
(2.9 3.46129e-07 0)
(2.9 3.70021e-07 0)
(2.9 2.68085e-07 0)
(2.9 4.43124e-08 0)
(2.9 -8.5179e-09 0)
(2.9 -1.41047e-07 0)
(2.9 -3.18066e-07 0)
(2.9 -2.41974e-07 0)
(2.9 -2.10406e-07 0)
(2.9 5.1892e-08 0)
(2.9 2.25957e-07 0)
(2.9 8.13517e-08 0)
(2.9 3.02578e-07 0)
(2.9 5.30391e-07 0)
(2.9 5.96541e-07 0)
(2.9 8.51264e-07 0)
(2.9 1.02339e-06 0)
(2.9 6.97515e-07 0)
(2.9 3.76929e-07 0)
(2.9 3.25746e-07 0)
(2.9 -1.78418e-07 0)
(2.9 -1.22559e-07 0)
(2.9 6.16314e-09 0)
(2.9 -1.18959e-07 0)
(2.9 -3.77855e-08 0)
(2.9 -6.80207e-08 0)
(2.9 -5.91566e-08 0)
(2.9 3.85388e-08 0)
(2.9 -7.33954e-08 0)
(2.9 -2.52869e-07 0)
(2.9 -2.52985e-07 0)
(2.9 -1.81855e-07 0)
(2.9 2.07931e-08 0)
(2.9 1.3974e-07 0)
(2.9 -1.41495e-07 0)
(2.9 -2.72649e-08 0)
(2.9 2.17944e-07 0)
(2.9 3.71259e-07 0)
(2.9 2.57875e-07 0)
(2.9 3.66999e-07 0)
(2.9 2.38322e-07 0)
(2.9 3.05127e-07 0)
(2.9 4.98597e-07 0)
(2.9 5.3376e-07 0)
(2.9 5.46001e-07 0)
(2.9 6.37202e-07 0)
(2.9 6.67013e-07 0)
(2.9 6.88638e-07 0)
(2.9 4.77529e-07 0)
(2.9 4.42426e-07 0)
(2.9 1.27711e-07 0)
(2.9 -5.96171e-09 0)
(2.9 3.75602e-08 0)
(2.9 1.77412e-07 0)
(2.9 3.81613e-07 0)
(2.9 5.17927e-07 0)
(2.9 8.24175e-07 0)
(2.9 4.6119e-07 0)
(2.9 6.36353e-07 0)
(2.9 4.23484e-07 0)
(2.9 3.65856e-07 0)
(2.9 4.43302e-07 0)
(2.9 6.22269e-07 0)
(2.9 2.73304e-07 0)
(2.9 8.14031e-08 0)
(2.9 7.64495e-08 0)
(2.9 -3.38315e-08 0)
(2.9 -5.14758e-08 0)
(2.9 2.54882e-07 0)
(2.9 4.05863e-08 0)
(2.9 2.43189e-07 0)
(2.9 1.90907e-07 0)
(2.9 3.13091e-07 0)
(2.9 4.74046e-07 0)
(2.9 6.23765e-07 0)
(2.9 6.39509e-07 0)
(2.9 7.25413e-07 0)
(2.9 5.15975e-07 0)
(2.9 3.09397e-07 0)
(2.9 4.02995e-07 0)
(2.9 -5.68366e-08 0)
(2.9 -1.94408e-07 0)
(2.9 -1.015e-07 0)
(2.9 -4.54888e-08 0)
(2.9 -1.56771e-07 0)
(2.9 -1.72764e-07 0)
(2.9 -1.62947e-07 0)
(2.9 1.8913e-07 0)
(2.9 -3.95853e-08 0)
(2.9 -1.14381e-07 0)
(2.9 -3.91709e-08 0)
(2.9 3.30497e-07 0)
(2.9 2.58939e-07 0)
(2.9 8.42701e-08 0)
(2.9 1.34464e-07 0)
(2.9 -1.43394e-08 0)
(2.9 -7.89414e-08 0)
(2.9 2.00146e-07 0)
(2.9 7.52688e-08 0)
(2.9 6.94937e-08 0)
(2.9 2.02649e-07 0)
(2.9 3.29299e-07 0)
(2.9 6.53544e-07 0)
(2.9 6.08941e-07 0)
(2.9 4.76913e-07 0)
(2.9 7.74367e-07 0)
(2.9 8.57353e-07 0)
(2.9 8.0116e-07 0)
(2.9 6.51711e-07 0)
(2.9 2.53648e-07 0)
(2.9 -6.02872e-08 0)
(2.9 -1.36994e-07 0)
(2.9 4.68885e-08 0)
(2.9 4.39668e-07 0)
(2.9 5.84743e-07 0)
(2.9 7.4504e-07 0)
(2.9 9.70983e-07 0)
(2.9 8.95765e-07 0)
(2.9 6.43907e-07 0)
(2.9 5.17153e-07 0)
(2.9 4.06938e-07 0)
(2.9 4.44583e-07 0)
(2.9 6.0543e-07 0)
(2.9 3.79873e-07 0)
(2.9 1.72695e-07 0)
(2.9 2.87623e-07 0)
(2.9 2.41829e-07 0)
(2.9 7.34976e-08 0)
(2.9 2.97299e-07 0)
(2.9 1.31948e-07 0)
(2.9 2.648e-07 0)
(2.9 3.03081e-07 0)
(2.9 3.02131e-07 0)
(2.9 3.14183e-07 0)
(2.9 5.97865e-07 0)
(2.9 4.42884e-07 0)
(2.9 4.52454e-07 0)
(2.9 2.82269e-07 0)
(2.9 1.76837e-07 0)
(2.9 1.68285e-07 0)
(2.9 -3.7953e-08 0)
(2.9 -2.71748e-07 0)
(2.9 -2.21749e-07 0)
(2.9 -2.68532e-08 0)
(2.9 -2.37793e-07 0)
(2.9 -4.16635e-08 0)
(2.9 -3.79213e-09 0)
(2.9 6.57174e-08 0)
(2.9 -3.31889e-08 0)
(2.9 4.47096e-08 0)
(2.9 6.31262e-08 0)
(2.9 5.11316e-07 0)
(2.9 6.01305e-08 0)
(2.9 -1.51787e-08 0)
(2.9 1.4979e-07 0)
(2.9 -4.06815e-08 0)
(2.9 -1.55768e-07 0)
(2.9 -5.62608e-08 0)
(2.9 -5.1225e-09 0)
(2.9 1.38489e-07 0)
(2.9 9.83109e-08 0)
(2.9 1.78532e-07 0)
(2.9 4.41368e-07 0)
(2.9 4.0305e-07 0)
(2.9 3.47123e-07 0)
(2.9 5.62577e-07 0)
(2.9 6.42865e-07 0)
(2.9 5.00987e-07 0)
(2.9 3.84192e-07 0)
(2.9 3.61383e-08 0)
(2.9 -1.56844e-07 0)
(2.9 -1.51566e-07 0)
(2.9 9.04231e-08 0)
(2.9 3.51548e-07 0)
(2.9 3.85098e-07 0)
(2.9 4.95015e-07 0)
(2.9 7.39921e-07 0)
(2.9 8.87895e-07 0)
(2.9 5.27799e-07 0)
(2.9 2.9177e-07 0)
(2.9 3.92001e-07 0)
(2.9 2.34666e-07 0)
(2.9 2.21072e-07 0)
(2.9 1.40823e-07 0)
(2.9 2.13763e-07 0)
(2.9 1.41488e-07 0)
(2.9 2.37855e-07 0)
(2.9 -3.19991e-09 0)
(2.9 -6.66414e-09 0)
(2.9 1.7961e-07 0)
(2.9 1.01583e-07 0)
(2.9 1.42023e-07 0)
(2.9 2.567e-07 0)
(2.9 3.59259e-07 0)
(2.9 3.79219e-07 0)
(2.9 2.86212e-07 0)
(2.9 2.34066e-07 0)
(2.9 1.19832e-07 0)
(2.9 5.94822e-08 0)
(2.9 1.18955e-08 0)
(2.9 -2.61733e-07 0)
(2.9 -2.56817e-07 0)
(2.9 -3.5005e-07 0)
(2.9 -2.09891e-07 0)
(2.9 -2.70538e-07 0)
(2.9 1.3782e-07 0)
(2.9 1.45999e-07 0)
(2.9 -7.97491e-08 0)
(2.9 -8.91206e-08 0)
(2.9 1.55541e-07 0)
(2.9 2.76885e-07 0)
(2.9 3.24194e-07 0)
(2.9 9.97804e-08 0)
(2.9 -1.07583e-07 0)
(2.9 -8.18517e-08 0)
(2.9 -5.61582e-08 0)
(2.9 -1.01166e-07 0)
(2.9 -7.3765e-08 0)
(2.9 -1.39454e-08 0)
(2.9 1.96771e-07 0)
(2.9 1.57849e-07 0)
(2.9 2.02575e-07 0)
(2.9 2.7835e-07 0)
(2.9 2.29019e-07 0)
(2.9 1.73878e-07 0)
(2.9 3.4876e-07 0)
(2.9 4.43094e-07 0)
(2.9 4.51206e-07 0)
(2.9 4.35511e-07 0)
(2.9 1.51364e-07 0)
(2.9 -1.53879e-07 0)
(2.9 -1.08994e-07 0)
(2.9 1.42018e-07 0)
(2.9 2.21291e-07 0)
(2.9 4.47606e-07 0)
(2.9 4.77303e-07 0)
(2.9 5.35353e-07 0)
(2.9 5.4692e-07 0)
(2.9 4.01506e-07 0)
(2.9 3.87976e-07 0)
(2.9 3.55112e-07 0)
(2.9 2.85167e-07 0)
(2.9 2.9287e-07 0)
(2.9 3.02481e-07 0)
(2.9 2.85644e-07 0)
(2.9 3.27629e-07 0)
(2.9 2.98068e-07 0)
(2.9 1.54198e-07 0)
(2.9 1.08617e-07 0)
(2.9 5.72804e-08 0)
(2.9 -1.15577e-09 0)
(2.9 1.39382e-08 0)
(2.9 1.82042e-07 0)
(2.9 4.28898e-07 0)
(2.9 2.84018e-07 0)
(2.9 1.83505e-07 0)
(2.9 1.21859e-07 0)
(2.9 5.74312e-08 0)
(2.9 1.66866e-08 0)
(2.9 2.04433e-08 0)
(2.9 -3.68995e-08 0)
(2.9 -9.50195e-08 0)
(2.9 -1.59007e-07 0)
(2.9 -2.4121e-07 0)
(2.9 -2.66391e-07 0)
(2.9 4.98125e-08 0)
(2.9 -4.71721e-08 0)
(2.9 -2.30873e-07 0)
(2.9 -1.33098e-07 0)
(2.9 2.28898e-07 0)
(2.9 6.4799e-07 0)
(2.9 4.11497e-07 0)
(2.9 1.9592e-07 0)
(2.9 -2.40959e-07 0)
(2.9 5.06058e-08 0)
(2.9 2.56945e-08 0)
(2.9 1.00747e-07 0)
(2.9 2.74982e-08 0)
(2.9 -5.50017e-08 0)
(2.9 -1.28793e-07 0)
(2.9 1.47013e-07 0)
(2.9 2.40717e-07 0)
(2.9 1.44918e-07 0)
(2.9 6.73063e-08 0)
(2.9 1.02737e-08 0)
(2.9 1.73841e-07 0)
(2.9 2.15069e-07 0)
(2.9 4.07083e-07 0)
(2.9 4.91936e-07 0)
(2.9 2.8167e-07 0)
(2.9 -1.10049e-07 0)
(2.9 -6.31321e-08 0)
(2.9 1.81209e-07 0)
(2.9 3.24586e-07 0)
(2.9 5.40102e-07 0)
(2.9 5.00936e-07 0)
(2.9 3.02011e-07 0)
(2.9 2.52872e-07 0)
(2.9 2.92671e-07 0)
(2.9 4.81953e-07 0)
(2.9 3.13159e-07 0)
(2.9 4.39611e-07 0)
(2.9 4.54768e-07 0)
(2.9 5.11107e-07 0)
(2.9 3.27947e-07 0)
(2.9 5.27949e-07 0)
(2.9 3.47027e-07 0)
(2.9 3.50807e-07 0)
(2.9 2.67703e-07 0)
(2.9 -3.80884e-08 0)
(2.9 -1.20844e-07 0)
(2.9 -8.50135e-08 0)
(2.9 1.09697e-07 0)
(2.9 2.75876e-07 0)
(2.9 2.33236e-07 0)
(2.9 1.11971e-07 0)
(2.9 9.59972e-08 0)
(2.9 7.06592e-08 0)
(2.9 2.54807e-08 0)
(2.9 1.27431e-07 0)
(2.9 2.54687e-07 0)
(2.9 5.47336e-08 0)
(2.9 3.21683e-08 0)
(2.9 -1.69352e-07 0)
(2.9 -2.37842e-07 0)
(2.9 -3.62993e-08 0)
(2.9 -1.79205e-07 0)
(2.9 -2.56323e-07 0)
(2.9 -1.12928e-07 0)
(2.9 2.38792e-07 0)
(2.9 6.27008e-07 0)
(2.9 4.39e-07 0)
(2.9 -3.18726e-08 0)
(2.9 -1.72614e-07 0)
(2.9 2.56225e-07 0)
(2.9 1.01518e-07 0)
(2.9 3.70773e-07 0)
(2.9 1.23803e-07 0)
(2.9 -1.43127e-07 0)
(2.9 -8.85762e-08 0)
(2.9 -1.14742e-08 0)
(2.9 7.3087e-08 0)
(2.9 3.68909e-08 0)
(2.9 -3.16871e-09 0)
(2.9 -1.27971e-07 0)
(2.9 3.78012e-08 0)
(2.9 -1.26191e-08 0)
(2.9 1.11265e-07 0)
(2.9 2.61355e-07 0)
(2.9 1.84407e-07 0)
(2.9 -9.9696e-08 0)
(2.9 -6.81502e-08 0)
(2.9 1.89357e-07 0)
(2.9 4.03005e-07 0)
(2.9 3.54064e-07 0)
(2.9 1.54655e-07 0)
(2.9 2.27257e-08 0)
(2.9 4.91042e-08 0)
(2.9 1.53857e-07 0)
(2.9 2.65658e-07 0)
(2.9 2.69283e-07 0)
(2.9 3.26034e-07 0)
(2.9 2.76184e-07 0)
(2.9 4.08271e-07 0)
(2.9 2.43475e-07 0)
(2.9 4.39344e-07 0)
(2.9 3.63498e-07 0)
(2.9 1.65867e-07 0)
(2.9 8.69952e-08 0)
(2.9 -1.81974e-07 0)
(2.9 -2.10994e-07 0)
(2.9 -1.57907e-07 0)
(2.9 8.91403e-08 0)
(2.9 2.09127e-07 0)
(2.9 2.12087e-07 0)
(2.9 2.18291e-08 0)
(2.9 1.17091e-07 0)
(2.9 1.1935e-07 0)
(2.9 1.18332e-08 0)
(2.9 2.36165e-07 0)
(2.9 2.12905e-07 0)
(2.9 6.79131e-08 0)
(2.9 -3.97716e-08 0)
(2.9 -4.46498e-08 0)
(2.9 -2.83171e-07 0)
(2.9 -1.57512e-07 0)
(2.9 -2.8712e-07 0)
(2.9 -1.91882e-07 0)
(2.9 -5.83329e-08 0)
(2.9 1.50071e-07 0)
(2.9 2.88508e-07 0)
(2.9 7.26336e-08 0)
(2.9 -2.40013e-07 0)
(2.9 -1.50853e-07 0)
(2.9 2.10326e-07 0)
(2.9 3.64791e-07 0)
(2.9 3.23066e-07 0)
(2.9 1.39538e-07 0)
(2.9 1.23017e-07 0)
(2.9 1.33677e-07 0)
(2.9 1.76426e-08 0)
(2.9 3.0073e-08 0)
(2.9 2.0311e-08 0)
(2.9 4.30375e-08 0)
(2.9 4.79236e-08 0)
(2.9 -5.08555e-08 0)
(2.9 -1.31963e-07 0)
(2.9 -1.53644e-07 0)
(2.9 1.40161e-07 0)
(2.9 2.09861e-07 0)
(2.9 1.92952e-07 0)
(2.9 2.0024e-07 0)
(2.9 1.63543e-07 0)
(2.9 1.69478e-07 0)
(2.9 1.44316e-07 0)
(2.9 7.32471e-08 0)
(2.9 -1.40423e-07 0)
(2.9 -8.60111e-08 0)
(2.9 1.5433e-08 0)
(2.9 8.44169e-09 0)
(2.9 1.99377e-07 0)
(2.9 2.27185e-07 0)
(2.9 4.05722e-08 0)
(2.9 3.40713e-07 0)
(2.9 3.89874e-07 0)
(2.9 4.07917e-07 0)
(2.9 3.59185e-07 0)
(2.9 2.27138e-07 0)
(2.9 3.16324e-08 0)
(2.9 5.6577e-08 0)
(2.9 1.0282e-07 0)
(2.9 1.09677e-07 0)
(2.9 1.34843e-07 0)
(2.9 1.9024e-07 0)
(2.9 2.23821e-07 0)
(2.9 2.07998e-07 0)
(2.9 1.7068e-07 0)
(2.9 1.8937e-07 0)
(2.9 2.54537e-07 0)
(2.9 3.56385e-07 0)
(2.9 4.54042e-07 0)
(2.9 3.71892e-07 0)
(2.9 2.62265e-07 0)
(2.9 6.85086e-08 0)
(2.9 -9.36707e-08 0)
(2.9 -5.31061e-08 0)
(2.9 -1.48618e-07 0)
(2.9 -1.43994e-07 0)
(2.9 -6.75007e-08 0)
(2.9 1.48404e-08 0)
(2.9 1.06988e-08 0)
(2.9 -1.79314e-07 0)
(2.9 -2.75645e-07 0)
(2.9 -1.46048e-07 0)
(2.9 1.53185e-07 0)
(2.9 5.54785e-07 0)
(2.9 5.38292e-07 0)
(2.9 4.36159e-07 0)
(2.9 4.67798e-07 0)
(2.9 1.32418e-07 0)
(2.9 9.88235e-08 0)
(2.9 4.70146e-08 0)
(2.9 7.29052e-08 0)
(2.9 1.29035e-07 0)
(2.9 1.96247e-07 0)
(2.9 -8.19096e-08 0)
(2.9 -1.45942e-07 0)
(2.9 -1.50794e-07 0)
(2.9 9.17593e-08 0)
(2.9 2.58791e-07 0)
(2.9 4.26079e-07 0)
(2.9 4.1423e-07 0)
(2.9 7.9988e-08 0)
(2.9 -2.30081e-08 0)
(2.9 -5.01572e-08 0)
(2.9 1.34142e-07 0)
(2.9 -2.31324e-07 0)
(2.9 -1.63087e-07 0)
(2.9 -8.69365e-08 0)
(2.9 -1.89582e-08 0)
(2.9 9.6926e-08 0)
(2.9 1.42223e-07 0)
(2.9 -1.18977e-08 0)
(2.9 2.7742e-07 0)
(2.9 5.09761e-07 0)
(2.9 3.69247e-07 0)
(2.9 3.1186e-07 0)
(2.9 3.6993e-07 0)
(2.9 4.52016e-08 0)
(2.9 3.62843e-07 0)
(2.9 4.47051e-07 0)
(2.9 3.61189e-07 0)
(2.9 1.91145e-07 0)
(2.9 1.86597e-07 0)
(2.9 2.30976e-07 0)
(2.9 3.8314e-07 0)
(2.9 2.07706e-07 0)
(2.9 2.3325e-07 0)
(2.9 4.58822e-07 0)
(2.9 4.2091e-07 0)