/*--------------------------------*- C++ -*----------------------------------*\
| =========                 |                                                 |
| \\      /  F ield         | OpenFOAM: The Open Source CFD Toolbox           |
|  \\    /   O peration     | Version:  2412                                  |
|   \\  /    A nd           | Website:  www.openfoam.com                      |
|    \\/     M anipulation  |                                                 |
\*---------------------------------------------------------------------------*/
FoamFile
{
    version     2.0;
    format      ascii;
    arch        "LSB;label=32;scalar=64";
    class       volVectorField;
    location    "0.005";
    object      U;
}
// * * * * * * * * * * * * * * * * * * * * * * * * * * * * * * * * * * * * * //

dimensions      [0 1 -1 0 0 0 0];

internalField   nonuniform List<vector> 
1800
(
(2.9 -1.10296e-08 0)
(2.9 2.51817e-09 0)
(2.9 6.50134e-09 0)
(2.9 3.11722e-08 0)
(2.9 -2.26373e-10 0)
(2.9 2.01351e-08 0)
(2.9 1.32514e-09 0)
(2.9 -3.61291e-09 0)
(2.9 -1.65036e-09 0)
(2.9 -2.44108e-09 0)
(2.9 1.609e-09 0)
(2.9 3.14676e-08 0)
(2.9 3.22924e-08 0)
(2.9 6.45444e-09 0)
(2.9 6.48548e-10 0)
(2.9 -1.32241e-08 0)
(2.9 3.93262e-09 0)
(2.9 -4.35893e-09 0)
(2.9 -1.2532e-08 0)
(2.9 -7.21243e-10 0)
(2.9 -1.44066e-09 0)
(2.9 -2.80421e-08 0)
(2.9 -4.23512e-08 0)
(2.9 -3.45201e-08 0)
(2.9 -1.97229e-08 0)
(2.9 -5.47874e-09 0)
(2.9 3.99454e-11 0)
(2.9 1.78695e-08 0)
(2.9 -1.08934e-09 0)
(2.9 1.55256e-09 0)
(2.9 2.75585e-08 0)
(2.9 9.29989e-09 0)
(2.9 2.5639e-08 0)
(2.9 2.26387e-08 0)
(2.9 -6.72806e-09 0)
(2.9 -1.10321e-08 0)
(2.9 -1.06573e-08 0)
(2.9 -7.20003e-09 0)
(2.9 -2.55925e-10 0)
(2.9 2.53147e-08 0)
(2.9 2.22598e-08 0)
(2.9 -3.76472e-09 0)
(2.9 -1.33279e-09 0)
(2.9 -6.06245e-09 0)
(2.9 7.38781e-09 0)
(2.9 1.99388e-08 0)
(2.9 3.67229e-10 0)
(2.9 -1.15868e-09 0)
(2.9 -1.49171e-08 0)
(2.9 -1.00441e-09 0)
(2.9 -3.59954e-09 0)
(2.9 -5.95555e-09 0)
(2.9 2.83229e-09 0)
(2.9 2.73197e-08 0)
(2.9 9.64373e-09 0)
(2.9 1.34977e-08 0)
(2.9 3.7058e-08 0)
(2.9 5.83326e-09 0)
(2.9 1.19412e-08 0)
(2.9 3.41254e-08 0)
(2.9 -5.30055e-09 0)
(2.9 6.03835e-09 0)
(2.9 1.87117e-08 0)
(2.9 4.44537e-08 0)
(2.9 -1.72761e-08 0)
(2.9 2.71569e-08 0)
(2.9 -4.33108e-09 0)
(2.9 -1.55798e-08 0)
(2.9 -9.49062e-09 0)
(2.9 -4.11954e-09 0)
(2.9 1.22601e-08 0)
(2.9 5.86059e-08 0)
(2.9 5.40774e-08 0)
(2.9 1.78847e-08 0)
(2.9 8.50165e-09 0)
(2.9 5.69836e-09 0)
(2.9 1.48196e-08 0)
(2.9 1.10826e-08 0)
(2.9 -5.75606e-09 0)
(2.9 -2.3249e-09 0)
(2.9 1.2214e-08 0)
(2.9 -5.79504e-08 0)
(2.9 -8.24295e-08 0)
(2.9 -7.66507e-08 0)
(2.9 -5.02509e-08 0)
(2.9 -2.05969e-08 0)
(2.9 -1.09035e-08 0)
(2.9 1.54084e-08 0)
(2.9 -4.84228e-09 0)
(2.9 7.68573e-09 0)
(2.9 4.30735e-08 0)
(2.9 1.29719e-08 0)
(2.9 3.28533e-08 0)
(2.9 3.01793e-08 0)
(2.9 -8.16207e-09 0)
(2.9 -1.55988e-08 0)
(2.9 -1.55228e-08 0)
(2.9 -7.12348e-09 0)
(2.9 4.91918e-09 0)
(2.9 3.91633e-08 0)
(2.9 2.50204e-08 0)
(2.9 -6.81233e-09 0)
(2.9 3.70957e-09 0)
(2.9 1.87117e-08 0)
(2.9 1.44856e-08 0)
(2.9 3.18564e-08 0)
(2.9 1.76778e-09 0)
(2.9 -5.87074e-09 0)
(2.9 -1.6591e-09 0)
(2.9 -4.59112e-09 0)
(2.9 -1.59753e-08 0)
(2.9 -1.4076e-08 0)
(2.9 4.0004e-09 0)
(2.9 4.31576e-08 0)
(2.9 2.10006e-08 0)
(2.9 2.97601e-08 0)
(2.9 6.79191e-08 0)
(2.9 3.71542e-08 0)
(2.9 2.11132e-08 0)
(2.9 5.30985e-08 0)
(2.9 2.8407e-08 0)
(2.9 1.8592e-09 0)
(2.9 1.49337e-08 0)
(2.9 1.1774e-08 0)
(2.9 -6.404e-09 0)
(2.9 3.7285e-09 0)
(2.9 -1.80523e-08 0)
(2.9 -2.45355e-08 0)
(2.9 -1.97786e-08 0)
(2.9 -4.39703e-09 0)
(2.9 2.06788e-08 0)
(2.9 4.65802e-08 0)
(2.9 3.29963e-08 0)
(2.9 2.57412e-08 0)
(2.9 1.42868e-08 0)
(2.9 2.33692e-08 0)
(2.9 1.37922e-08 0)
(2.9 1.72576e-08 0)
(2.9 4.60705e-09 0)
(2.9 -1.68518e-09 0)
(2.9 1.25254e-08 0)
(2.9 -5.90993e-08 0)
(2.9 -8.66615e-08 0)
(2.9 -9.72613e-08 0)
(2.9 -6.84688e-08 0)
(2.9 -3.38429e-08 0)
(2.9 -2.65388e-08 0)
(2.9 -1.4971e-08 0)
(2.9 -9.67132e-09 0)
(2.9 9.51414e-09 0)
(2.9 2.02444e-08 0)
(2.9 3.37593e-09 0)
(2.9 -2.0038e-10 0)
(2.9 5.81637e-09 0)
(2.9 -4.41391e-09 0)
(2.9 -1.18e-08 0)
(2.9 -1.13673e-08 0)
(2.9 2.22732e-09 0)
(2.9 4.85571e-09 0)
(2.9 1.6558e-08 0)
(2.9 -3.32445e-10 0)
(2.9 -4.22663e-09 0)
(2.9 1.03041e-08 0)
(2.9 4.25577e-08 0)
(2.9 1.83669e-08 0)
(2.9 1.97132e-08 0)
(2.9 -5.44979e-10 0)
(2.9 -4.03418e-09 0)
(2.9 1.41874e-08 0)
(2.9 -1.09168e-08 0)
(2.9 -2.14428e-08 0)
(2.9 -2.0424e-08 0)
(2.9 -2.53014e-10 0)
(2.9 2.56963e-08 0)
(2.9 2.24925e-08 0)
(2.9 3.33171e-08 0)
(2.9 5.41782e-08 0)
(2.9 5.04362e-08 0)
(2.9 1.87762e-08 0)
(2.9 3.24738e-08 0)
(2.9 2.26642e-08 0)
(2.9 -1.13185e-08 0)
(2.9 -1.92941e-09 0)
(2.9 -1.99125e-08 0)
(2.9 1.17735e-08 0)
(2.9 -1.1791e-08 0)
(2.9 -2.30625e-08 0)
(2.9 -3.17351e-08 0)
(2.9 -3.5301e-08 0)
(2.9 -8.9708e-09 0)
(2.9 2.39931e-08 0)
(2.9 3.35336e-08 0)
(2.9 5.1524e-08 0)
(2.9 3.09307e-08 0)
(2.9 1.27501e-08 0)
(2.9 -3.44728e-11 0)
(2.9 -1.254e-09 0)
(2.9 -7.42516e-09 0)
(2.9 -9.36578e-09 0)
(2.9 3.37746e-09 0)
(2.9 -2.57111e-09 0)
(2.9 -5.07176e-08 0)
(2.9 -7.37944e-08 0)
(2.9 -9.52283e-08 0)
(2.9 -7.32668e-08 0)
(2.9 -3.73186e-08 0)
(2.9 -3.65954e-08 0)
(2.9 -2.78933e-08 0)
(2.9 -1.03121e-08 0)
(2.9 9.70097e-09 0)
(2.9 -2.9458e-09 0)
(2.9 -1.38765e-08 0)
(2.9 -2.50211e-08 0)
(2.9 -7.86657e-09 0)
(2.9 1.61982e-09 0)
(2.9 -1.11151e-08 0)
(2.9 -9.35304e-09 0)
(2.9 1.34654e-08 0)
(2.9 -4.11368e-09 0)
(2.9 1.0457e-08 0)
(2.9 -1.27722e-08 0)
(2.9 4.60089e-09 0)
(2.9 1.11234e-08 0)
(2.9 3.14036e-08 0)
(2.9 2.03131e-08 0)
(2.9 1.72018e-08 0)
(2.9 -1.67285e-09 0)
(2.9 -5.01172e-09 0)
(2.9 -7.20061e-09 0)
(2.9 -1.65995e-08 0)
(2.9 -2.55357e-08 0)
(2.9 -2.85596e-08 0)
(2.9 -6.79377e-09 0)
(2.9 1.42171e-08 0)
(2.9 1.92137e-08 0)
(2.9 2.85573e-08 0)
(2.9 3.57181e-08 0)
(2.9 2.85645e-08 0)
(2.9 8.60319e-09 0)
(2.9 1.59814e-08 0)
(2.9 -7.79758e-09 0)
(2.9 -2.362e-08 0)
(2.9 -1.2376e-08 0)
(2.9 -1.19393e-09 0)
(2.9 7.44157e-09 0)
(2.9 -2.18197e-08 0)
(2.9 -1.98569e-08 0)
(2.9 -4.47921e-08 0)
(2.9 -4.98946e-08 0)
(2.9 -1.59773e-08 0)
(2.9 2.46961e-08 0)
(2.9 4.88979e-08 0)
(2.9 6.93078e-08 0)
(2.9 3.02171e-08 0)
(2.9 1.73458e-08 0)
(2.9 2.06266e-08 0)
(2.9 -1.3101e-08 0)
(2.9 -6.12471e-09 0)
(2.9 -1.20426e-08 0)
(2.9 1.72938e-08 0)
(2.9 3.20922e-08 0)
(2.9 -8.50688e-09 0)
(2.9 -4.64487e-08 0)
(2.9 -3.67709e-08 0)
(2.9 -2.63465e-08 0)
(2.9 -2.71426e-08 0)
(2.9 -3.10845e-08 0)
(2.9 -2.84991e-08 0)
(2.9 -5.76725e-09 0)
(2.9 1.30403e-08 0)
(2.9 9.22559e-09 0)
(2.9 -2.27787e-08 0)
(2.9 -3.62317e-08 0)
(2.9 -1.0818e-08 0)
(2.9 1.09088e-08 0)
(2.9 2.01892e-08 0)
(2.9 2.55533e-08 0)
(2.9 2.68797e-08 0)
(2.9 2.46806e-08 0)
(2.9 2.26695e-08 0)
(2.9 1.39862e-08 0)
(2.9 1.58986e-08 0)
(2.9 3.7746e-09 0)
(2.9 2.67407e-08 0)
(2.9 2.2135e-08 0)
(2.9 1.92801e-08 0)
(2.9 -9.97301e-09 0)
(2.9 -8.71229e-09 0)
(2.9 -2.45322e-08 0)
(2.9 -2.2567e-08 0)
(2.9 -3.11017e-08 0)
(2.9 -3.52411e-08 0)
(2.9 -1.09692e-08 0)
(2.9 6.8359e-09 0)
(2.9 9.18232e-09 0)
(2.9 1.74949e-08 0)
(2.9 1.66525e-08 0)
(2.9 3.97691e-09 0)
(2.9 -9.74459e-09 0)
(2.9 -9.3834e-09 0)
(2.9 -1.84706e-08 0)
(2.9 -3.21369e-08 0)
(2.9 -1.14326e-08 0)
(2.9 3.07172e-08 0)
(2.9 1.4795e-08 0)
(2.9 1.10235e-08 0)
(2.9 -1.39335e-08 0)
(2.9 -5.53691e-08 0)
(2.9 -5.24055e-08 0)
(2.9 -1.87742e-08 0)
(2.9 1.54675e-08 0)
(2.9 5.23341e-08 0)
(2.9 4.56793e-08 0)
(2.9 2.58906e-08 0)
(2.9 2.5621e-08 0)
(2.9 4.92916e-08 0)
(2.9 2.23899e-08 0)
(2.9 7.97212e-09 0)
(2.9 -2.19677e-08 0)
(2.9 2.30452e-08 0)
(2.9 6.39272e-08 0)
(2.9 6.71746e-08 0)
(2.9 1.60223e-08 0)
(2.9 2.14383e-08 0)
(2.9 2.23314e-08 0)
(2.9 -6.78204e-09 0)
(2.9 -1.34382e-08 0)
(2.9 -2.82405e-08 0)
(2.9 2.02237e-09 0)
(2.9 1.55745e-08 0)
(2.9 2.64158e-08 0)
(2.9 -1.47763e-08 0)
(2.9 -3.95548e-08 0)
(2.9 -4.86053e-09 0)
(2.9 1.21137e-08 0)
(2.9 4.03012e-08 0)
(2.9 5.08764e-08 0)
(2.9 3.50104e-08 0)
(2.9 5.38803e-08 0)
(2.9 3.0328e-08 0)
(2.9 3.2205e-08 0)
(2.9 2.4063e-08 0)
(2.9 2.83473e-08 0)
(2.9 2.73005e-08 0)
(2.9 2.35777e-08 0)
(2.9 2.36378e-08 0)
(2.9 1.38238e-08 0)
(2.9 -9.48065e-09 0)
(2.9 -4.40036e-08 0)
(2.9 -2.79199e-08 0)
(2.9 -2.87269e-08 0)
(2.9 -4.09984e-08 0)
(2.9 -9.76217e-09 0)
(2.9 -3.81772e-09 0)
(2.9 -6.67209e-09 0)
(2.9 -2.80383e-09 0)
(2.9 -1.44838e-08 0)
(2.9 -2.90349e-08 0)
(2.9 -4.11988e-08 0)
(2.9 -4.14318e-08 0)
(2.9 -1.94504e-08 0)
(2.9 -3.97021e-08 0)
(2.9 -6.89808e-09 0)
(2.9 3.10305e-08 0)
(2.9 1.17997e-08 0)
(2.9 4.35933e-08 0)
(2.9 -5.14394e-09 0)
(2.9 -5.57497e-08 0)
(2.9 -4.65483e-08 0)
(2.9 -2.19349e-08 0)
(2.9 -2.8714e-09 0)
(2.9 2.13387e-08 0)
(2.9 2.58593e-08 0)
(2.9 2.22778e-08 0)
(2.9 3.03738e-08 0)
(2.9 4.17183e-08 0)
(2.9 5.53185e-08 0)
(2.9 2.21156e-08 0)
(2.9 -9.59048e-09 0)
(2.9 2.01111e-08 0)
(2.9 5.48603e-08 0)
(2.9 9.96953e-08 0)
(2.9 9.88198e-08 0)
(2.9 6.60735e-08 0)
(2.9 2.60841e-08 0)
(2.9 1.41306e-08 0)
(2.9 9.55238e-09 0)
(2.9 4.87888e-09 0)
(2.9 1.23287e-08 0)
(2.9 1.57442e-08 0)
(2.9 1.82087e-08 0)
(2.9 4.36587e-09 0)
(2.9 -5.16453e-09 0)
(2.9 3.48749e-09 0)
(2.9 3.08939e-09 0)
(2.9 1.95886e-08 0)
(2.9 3.2799e-08 0)
(2.9 3.21333e-08 0)
(2.9 4.0196e-08 0)
(2.9 2.25767e-08 0)
(2.9 6.51845e-09 0)
(2.9 2.56207e-08 0)
(2.9 5.00293e-08 0)
(2.9 2.76293e-08 0)
(2.9 2.3126e-08 0)
(2.9 2.53108e-08 0)
(2.9 3.5452e-08 0)
(2.9 -6.58019e-09 0)
(2.9 -2.16885e-08 0)
(2.9 -2.1125e-08 0)
(2.9 -1.43831e-08 0)
(2.9 -7.95232e-09 0)
(2.9 -5.86003e-09 0)
(2.9 -1.65676e-08 0)
(2.9 -2.25319e-08 0)
(2.9 -3.02977e-08 0)
(2.9 -4.6835e-08 0)
(2.9 -5.30458e-08 0)
(2.9 -7.67438e-08 0)
(2.9 -5.92349e-08 0)
(2.9 -1.74536e-08 0)
(2.9 -4.83977e-08 0)
(2.9 1.68479e-09 0)
(2.9 3.81875e-08 0)
(2.9 2.98875e-08 0)
(2.9 4.20057e-08 0)
(2.9 1.0271e-08 0)
(2.9 -1.72598e-08 0)
(2.9 -4.18681e-08 0)
(2.9 -2.65553e-08 0)
(2.9 -1.35067e-08 0)
(2.9 5.1666e-09 0)
(2.9 1.4235e-08 0)
(2.9 2.01634e-08 0)
(2.9 3.23061e-08 0)
(2.9 2.71468e-08 0)
(2.9 4.72699e-08 0)
(2.9 3.57318e-08 0)
(2.9 2.92189e-08 0)
(2.9 2.50804e-08 0)
(2.9 4.95797e-08 0)
(2.9 8.57707e-08 0)
(2.9 1.23343e-07 0)
(2.9 9.29106e-08 0)
(2.9 6.18647e-08 0)
(2.9 3.37132e-08 0)
(2.9 2.34044e-08 0)
(2.9 2.49408e-08 0)
(2.9 1.9915e-08 0)
(2.9 1.72098e-08 0)
(2.9 2.12461e-08 0)
(2.9 2.41929e-08 0)
(2.9 1.70613e-08 0)
(2.9 8.89781e-09 0)
(2.9 -4.79378e-10 0)
(2.9 9.21919e-09 0)
(2.9 2.09133e-08 0)
(2.9 2.49202e-08 0)
(2.9 2.63379e-08 0)
(2.9 1.92166e-08 0)
(2.9 2.38935e-08 0)
(2.9 2.12511e-08 0)
(2.9 3.24515e-08 0)
(2.9 2.2879e-08 0)
(2.9 2.00805e-08 0)
(2.9 2.1413e-08 0)
(2.9 2.05523e-08 0)
(2.9 6.37973e-10 0)
(2.9 1.42263e-09 0)
(2.9 -1.40523e-08 0)
(2.9 -5.83529e-10 0)
(2.9 1.969e-08 0)
(2.9 -3.97437e-09 0)
(2.9 -2.13621e-08 0)
(2.9 -3.29468e-08 0)
(2.9 -4.69776e-08 0)
(2.9 -5.67531e-08 0)
(2.9 -5.47238e-08 0)
(2.9 -5.63248e-08 0)
(2.9 -5.19422e-08 0)
(2.9 -8.03421e-09 0)
(2.9 -2.21618e-08 0)
(2.9 1.58679e-08 0)
(2.9 4.74231e-08 0)
(2.9 7.73592e-08 0)
(2.9 4.72442e-08 0)
(2.9 2.30115e-08 0)
(2.9 1.60676e-08 0)
(2.9 -4.55023e-08 0)
(2.9 -2.34191e-08 0)
(2.9 -1.21441e-08 0)
(2.9 -2.01551e-10 0)
(2.9 9.67901e-09 0)
(2.9 1.91616e-08 0)
(2.9 3.42797e-08 0)
(2.9 4.5472e-08 0)
(2.9 4.67212e-08 0)
(2.9 4.81644e-08 0)
(2.9 6.96709e-08 0)
(2.9 3.6907e-08 0)
(2.9 3.97566e-08 0)
(2.9 6.37246e-08 0)
(2.9 1.00186e-07 0)
(2.9 1.02816e-07 0)
(2.9 8.9847e-08 0)
(2.9 3.84067e-08 0)
(2.9 2.33977e-08 0)
(2.9 3.54335e-08 0)
(2.9 2.32015e-08 0)
(2.9 1.88054e-08 0)
(2.9 2.64623e-08 0)
(2.9 3.84011e-08 0)
(2.9 2.11295e-08 0)
(2.9 1.39119e-08 0)
(2.9 3.56192e-09 0)
(2.9 6.20987e-09 0)
(2.9 1.4614e-08 0)
(2.9 1.73973e-08 0)
(2.9 1.82344e-08 0)
(2.9 2.17341e-08 0)
(2.9 3.81331e-08 0)
(2.9 5.8177e-09 0)
(2.9 1.41483e-08 0)
(2.9 1.47949e-08 0)
(2.9 1.01858e-08 0)
(2.9 1.30836e-08 0)
(2.9 1.45864e-08 0)
(2.9 3.20236e-09 0)
(2.9 -3.24685e-08 0)
(2.9 -2.04688e-08 0)
(2.9 1.9564e-09 0)
(2.9 -4.72556e-11 0)
(2.9 -1.75703e-09 0)
(2.9 -1.71862e-08 0)
(2.9 -3.23199e-08 0)
(2.9 -4.20097e-08 0)
(2.9 -4.49288e-08 0)
(2.9 -3.70135e-08 0)
(2.9 -1.8617e-08 0)
(2.9 -3.06353e-08 0)
(2.9 2.86349e-09 0)
(2.9 3.79512e-08 0)
(2.9 3.14101e-08 0)
(2.9 5.0525e-08 0)
(2.9 8.52402e-08 0)
(2.9 4.71296e-08 0)
(2.9 2.60683e-08 0)
(2.9 1.8169e-08 0)
(2.9 -1.97308e-08 0)
(2.9 -8.64017e-09 0)
(2.9 -2.99737e-09 0)
(2.9 -7.21766e-09 0)
(2.9 6.22115e-09 0)
(2.9 1.73269e-08 0)
(2.9 3.34568e-08 0)
(2.9 6.31084e-08 0)
(2.9 4.77302e-08 0)
(2.9 4.97969e-08 0)
(2.9 7.02316e-08 0)
(2.9 3.80698e-08 0)
(2.9 1.57332e-08 0)
(2.9 3.52809e-08 0)
(2.9 7.37599e-08 0)
(2.9 1.00137e-07 0)
(2.9 6.72823e-08 0)
(2.9 2.55019e-08 0)
(2.9 1.77518e-08 0)
(2.9 4.75339e-08 0)
(2.9 2.29511e-08 0)
(2.9 1.89515e-08 0)
(2.9 2.41716e-08 0)
(2.9 3.75887e-08 0)
(2.9 4.87372e-08 0)
(2.9 1.6248e-08 0)
(2.9 8.83449e-09 0)
(2.9 3.54497e-09 0)
(2.9 1.17513e-08 0)
(2.9 1.29854e-08 0)
(2.9 1.07925e-08 0)
(2.9 1.65737e-08 0)
(2.9 1.78802e-09 0)
(2.9 -1.6497e-08 0)
(2.9 -3.65571e-09 0)
(2.9 -1.58637e-09 0)
(2.9 -6.55088e-09 0)
(2.9 2.67803e-09 0)
(2.9 9.20034e-09 0)
(2.9 -8.52606e-09 0)
(2.9 -3.92875e-08 0)
(2.9 -2.68451e-08 0)
(2.9 2.41983e-09 0)
(2.9 1.84027e-08 0)
(2.9 6.09213e-09 0)
(2.9 -6.9878e-09 0)
(2.9 -2.43065e-08 0)
(2.9 -2.31553e-08 0)
(2.9 -2.4688e-08 0)
(2.9 -1.56617e-08 0)
(2.9 -1.47103e-08 0)
(2.9 -1.08219e-08 0)
(2.9 8.11039e-10 0)
(2.9 4.98834e-08 0)
(2.9 3.62037e-08 0)
(2.9 4.54798e-08 0)
(2.9 6.03366e-08 0)
(2.9 3.99767e-08 0)
(2.9 2.75624e-08 0)
(2.9 3.04339e-08 0)
(2.9 4.03208e-08 0)
(2.9 1.19631e-08 0)
(2.9 1.35644e-09 0)
(2.9 -2.47961e-08 0)
(2.9 1.03068e-09 0)
(2.9 1.35404e-08 0)
(2.9 2.75691e-08 0)
(2.9 4.00433e-08 0)
(2.9 3.44406e-08 0)
(2.9 2.98728e-08 0)
(2.9 1.82274e-08 0)
(2.9 1.54403e-08 0)
(2.9 -2.47593e-08 0)
(2.9 4.47736e-09 0)
(2.9 3.6982e-08 0)
(2.9 5.25962e-08 0)
(2.9 3.63226e-08 0)
(2.9 1.2134e-08 0)
(2.9 1.13228e-08 0)
(2.9 2.28801e-08 0)
(2.9 1.56901e-08 0)
(2.9 9.0987e-09 0)
(2.9 7.27063e-09 0)
(2.9 1.10273e-08 0)
(2.9 3.43482e-08 0)
(2.9 1.04131e-08 0)
(2.9 1.1211e-08 0)
(2.9 -5.66886e-09 0)
(2.9 1.12388e-08 0)
(2.9 4.40119e-09 0)
(2.9 -1.44329e-09 0)
(2.9 2.95567e-10 0)
(2.9 -3.50619e-08 0)
(2.9 -2.87701e-08 0)
(2.9 -1.82363e-08 0)
(2.9 -2.11171e-08 0)
(2.9 -1.96903e-08 0)
(2.9 -6.25928e-09 0)
(2.9 -3.03312e-09 0)
(2.9 -2.40761e-08 0)
(2.9 -3.64266e-08 0)
(2.9 -2.40923e-08 0)
(2.9 4.48138e-09 0)
(2.9 3.92822e-08 0)
(2.9 1.44516e-08 0)
(2.9 4.59167e-09 0)
(2.9 -1.94676e-08 0)
(2.9 -7.81236e-10 0)
(2.9 -1.02725e-08 0)
(2.9 9.82914e-10 0)
(2.9 2.85675e-08 0)
(2.9 3.29807e-09 0)
(2.9 1.75762e-08 0)
(2.9 1.694e-08 0)
(2.9 2.9603e-08 0)
(2.9 3.62548e-08 0)
(2.9 4.25139e-08 0)
(2.9 3.20709e-08 0)
(2.9 2.89151e-08 0)
(2.9 3.94591e-08 0)
(2.9 5.80924e-08 0)
(2.9 2.20987e-08 0)
(2.9 8.43193e-10 0)
(2.9 -5.61304e-09 0)
(2.9 -4.92759e-09 0)
(2.9 6.71572e-09 0)
(2.9 1.26167e-08 0)
(2.9 1.20203e-08 0)
(2.9 5.60217e-09 0)
(2.9 -7.96662e-09 0)
(2.9 -8.75344e-09 0)
(2.9 -1.64945e-08 0)
(2.9 -2.79058e-08 0)
(2.9 -1.83343e-08 0)
(2.9 1.442e-09 0)
(2.9 1.08879e-08 0)
(2.9 5.2648e-09 0)
(2.9 2.18049e-09 0)
(2.9 -7.46876e-10 0)
(2.9 -3.67299e-09 0)
(2.9 -2.31025e-09 0)
(2.9 -1.60303e-08 0)
(2.9 -2.02623e-08 0)
(2.9 -2.08377e-08 0)
(2.9 -1.32118e-09 0)
(2.9 -2.31316e-09 0)
(2.9 1.1195e-08 0)
(2.9 1.77517e-08 0)
(2.9 9.97899e-09 0)
(2.9 -8.34826e-09 0)
(2.9 -1.27532e-08 0)
(2.9 -1.0736e-08 0)
(2.9 -1.80297e-08 0)
(2.9 -2.58189e-08 0)
(2.9 -2.53902e-08 0)
(2.9 -2.87669e-08 0)
(2.9 -2.32549e-08 0)
(2.9 -1.21388e-08 0)
(2.9 -1.32172e-08 0)
(2.9 -2.16926e-08 0)
(2.9 -1.47119e-08 0)
(2.9 -1.24053e-08 0)
(2.9 6.99216e-09 0)
(2.9 2.65113e-08 0)
(2.9 1.80791e-08 0)
(2.9 1.6245e-08 0)
(2.9 1.75129e-08 0)
(2.9 2.30896e-08 0)
(2.9 3.52713e-08 0)
(2.9 4.80763e-08 0)
(2.9 7.32949e-08 0)
(2.9 4.90658e-08 0)
(2.9 3.05374e-08 0)
(2.9 2.6041e-08 0)
(2.9 2.37589e-08 0)
(2.9 2.67729e-08 0)
(2.9 2.94994e-08 0)
(2.9 2.53548e-08 0)
(2.9 2.88691e-08 0)
(2.9 3.62032e-08 0)
(2.9 2.9993e-08 0)
(2.9 1.98743e-08 0)
(2.9 3.21674e-09 0)
(2.9 6.87607e-09 0)
(2.9 -1.65554e-08 0)
(2.9 -7.78916e-09 0)
(2.9 -9.95e-09 0)
(2.9 -1.95401e-08 0)
(2.9 -3.26849e-08 0)
(2.9 -5.42546e-08 0)
(2.9 -3.23614e-08 0)
(2.9 -3.99635e-08 0)
(2.9 -1.44431e-08 0)
(2.9 -3.13387e-08 0)
(2.9 -2.28857e-08 0)
(2.9 -3.04026e-08 0)
(2.9 -3.017e-08 0)
(2.9 -1.47115e-08 0)
(2.9 -2.87509e-08 0)
(2.9 -3.05684e-08 0)
(2.9 -3.171e-08 0)
(2.9 -4.34852e-08 0)
(2.9 -4.74097e-08 0)
(2.9 -3.68816e-08 0)
(2.9 -2.28716e-08 0)
(2.9 -1.63238e-08 0)
(2.9 6.75552e-09 0)
(2.9 3.67137e-08 0)
(2.9 1.0614e-10 0)
(2.9 -1.68915e-08 0)
(2.9 -2.20399e-08 0)
(2.9 -1.15716e-08 0)
(2.9 1.34392e-08 0)
(2.9 -1.88946e-08 0)
(2.9 -2.57301e-08 0)
(2.9 -2.56054e-08 0)
(2.9 -2.07453e-08 0)
(2.9 -1.29131e-08 0)
(2.9 -1.11608e-08 0)
(2.9 -3.59671e-09 0)
(2.9 1.859e-08 0)
(2.9 9.06698e-11 0)
(2.9 1.13391e-08 0)
(2.9 2.05722e-08 0)
(2.9 1.88212e-08 0)
(2.9 2.32949e-08 0)
(2.9 4.83185e-08 0)
(2.9 3.84704e-08 0)
(2.9 7.04635e-08 0)
(2.9 7.63962e-08 0)
(2.9 6.57938e-08 0)
(2.9 7.69443e-08 0)
(2.9 1.64206e-08 0)
(2.9 4.08891e-08 0)
(2.9 2.04276e-08 0)
(2.9 1.92791e-08 0)
(2.9 2.02634e-08 0)
(2.9 1.98642e-08 0)
(2.9 1.99121e-08 0)
(2.9 2.49813e-08 0)
(2.9 3.60435e-08 0)
(2.9 1.89243e-08 0)
(2.9 -3.72505e-09 0)
(2.9 -2.4691e-08 0)
(2.9 -3.12924e-08 0)
(2.9 -2.40592e-08 0)
(2.9 -3.19853e-08 0)
(2.9 -4.83643e-08 0)
(2.9 -6.80749e-08 0)
(2.9 -8.5601e-08 0)
(2.9 -6.44348e-08 0)
(2.9 -4.44671e-08 0)
(2.9 -1.95779e-08 0)
(2.9 -4.24541e-08 0)
(2.9 -4.43778e-08 0)
(2.9 -7.27639e-08 0)
(2.9 -6.30808e-08 0)
(2.9 -3.90702e-08 0)
(2.9 -6.72831e-08 0)
(2.9 -5.22375e-08 0)
(2.9 -5.5798e-08 0)
(2.9 -6.2986e-08 0)
(2.9 -6.28435e-08 0)
(2.9 -4.14728e-08 0)
(2.9 -4.01867e-08 0)
(2.9 -2.34416e-08 0)
(2.9 1.34405e-10 0)
(2.9 1.12783e-08 0)
(2.9 -1.51832e-08 0)
(2.9 -2.73039e-08 0)
(2.9 -3.14324e-08 0)
(2.9 -9.80884e-09 0)
(2.9 1.38344e-08 0)
(2.9 -2.89162e-08 0)
(2.9 -2.44602e-08 0)
(2.9 -1.91948e-08 0)
(2.9 -1.88615e-08 0)
(2.9 -8.39725e-09 0)
(2.9 -4.46904e-10 0)
(2.9 1.60268e-08 0)
(2.9 9.38971e-09 0)
(2.9 2.22282e-09 0)
(2.9 1.6618e-08 0)
(2.9 1.80392e-08 0)
(2.9 1.75416e-08 0)
(2.9 2.29032e-08 0)
(2.9 3.75143e-08 0)
(2.9 3.89458e-08 0)
(2.9 5.05325e-08 0)
(2.9 4.28026e-08 0)
(2.9 3.81553e-08 0)
(2.9 4.96378e-08 0)
(2.9 1.11929e-08 0)
(2.9 1.99686e-08 0)
(2.9 1.40255e-08 0)
(2.9 1.32149e-08 0)
(2.9 1.37416e-08 0)
(2.9 5.97237e-09 0)
(2.9 -4.01888e-09 0)
(2.9 9.52751e-09 0)
(2.9 4.42829e-08 0)
(2.9 9.00213e-09 0)
(2.9 -2.04288e-08 0)
(2.9 -4.37866e-08 0)
(2.9 -3.75683e-08 0)
(2.9 -3.38195e-08 0)
(2.9 -4.66894e-08 0)
(2.9 -6.42064e-08 0)
(2.9 -7.71651e-08 0)
(2.9 -8.40238e-08 0)
(2.9 -6.28138e-08 0)
(2.9 -2.82613e-08 0)
(2.9 -8.97169e-09 0)
(2.9 -2.02027e-08 0)
(2.9 -5.711e-08 0)
(2.9 -9.69757e-08 0)
(2.9 -8.21916e-08 0)
(2.9 -6.01933e-08 0)
(2.9 -6.57852e-08 0)
(2.9 -6.34463e-08 0)
(2.9 -6.3624e-08 0)
(2.9 -7.34945e-08 0)
(2.9 -6.67249e-08 0)
(2.9 -3.8342e-08 0)
(2.9 -5.31656e-08 0)
(2.9 -2.50002e-08 0)
(2.9 -9.11117e-09 0)
(2.9 -1.17203e-08 0)
(2.9 -2.77003e-08 0)
(2.9 -3.74305e-08 0)
(2.9 -3.75468e-08 0)
(2.9 -5.07576e-09 0)
(2.9 1.7556e-08 0)
(2.9 -1.78567e-08 0)
(2.9 -1.59151e-08 0)
(2.9 -1.06822e-08 0)
(2.9 -2.29402e-08 0)
(2.9 -1.03721e-09 0)
(2.9 1.18999e-08 0)
(2.9 3.44437e-08 0)
(2.9 3.23527e-08 0)
(2.9 3.82365e-08 0)
(2.9 1.94011e-08 0)
(2.9 1.42835e-08 0)
(2.9 1.43407e-08 0)
(2.9 1.91801e-08 0)
(2.9 2.34897e-08 0)
(2.9 2.594e-08 0)
(2.9 1.97154e-08 0)
(2.9 1.01238e-09 0)
(2.9 7.06476e-09 0)
(2.9 2.24423e-08 0)
(2.9 4.74371e-09 0)
(2.9 -1.44742e-09 0)
(2.9 5.28094e-09 0)
(2.9 7.76773e-09 0)
(2.9 4.42741e-10 0)
(2.9 -2.31587e-08 0)
(2.9 -3.13756e-08 0)
(2.9 -7.53099e-09 0)
(2.9 1.26072e-08 0)
(2.9 -1.25734e-08 0)
(2.9 -2.91471e-08 0)
(2.9 -5.15784e-08 0)
(2.9 -3.33783e-08 0)
(2.9 -3.42499e-08 0)
(2.9 -4.4713e-08 0)
(2.9 -6.03747e-08 0)
(2.9 -5.53267e-08 0)
(2.9 -6.30342e-08 0)
(2.9 -5.02657e-08 0)
(2.9 -1.81157e-09 0)
(2.9 -1.33231e-09 0)
(2.9 -1.81974e-09 0)
(2.9 -4.74993e-08 0)
(2.9 -1.02175e-07 0)
(2.9 -9.25756e-08 0)
(2.9 -7.92842e-08 0)
(2.9 -5.33662e-08 0)
(2.9 -7.14663e-08 0)
(2.9 -6.6767e-08 0)
(2.9 -7.27903e-08 0)
(2.9 -6.69237e-08 0)
(2.9 -2.20461e-08 0)
(2.9 -3.35433e-08 0)
(2.9 -2.44838e-08 0)
(2.9 -1.92134e-08 0)
(2.9 -2.31756e-08 0)
(2.9 -3.24238e-08 0)
(2.9 -3.50965e-08 0)
(2.9 -4.13975e-08 0)
(2.9 -3.77457e-09 0)
(2.9 1.83033e-08 0)
(2.9 3.05146e-08 0)
(2.9 1.03438e-10 0)
(2.9 2.11191e-09 0)
(2.9 7.33744e-09 0)
(2.9 3.86562e-09 0)
(2.9 1.82935e-08 0)
(2.9 4.71275e-08 0)
(2.9 8.47265e-08 0)
(2.9 6.4463e-08 0)
(2.9 1.38662e-08 0)
(2.9 6.98209e-09 0)
(2.9 9.35411e-09 0)
(2.9 7.04029e-09 0)
(2.9 3.12399e-09 0)
(2.9 3.57773e-09 0)
(2.9 -1.85232e-08 0)
(2.9 -3.3206e-08 0)
(2.9 -1.61422e-08 0)
(2.9 -6.58351e-09 0)
(2.9 -3.40704e-09 0)
(2.9 -2.26635e-08 0)
(2.9 -8.01068e-10 0)
(2.9 -7.03713e-10 0)
(2.9 -2.1863e-08 0)
(2.9 -4.91222e-08 0)
(2.9 -4.5296e-08 0)
(2.9 -2.2767e-08 0)
(2.9 -1.45529e-08 0)
(2.9 -2.95322e-08 0)
(2.9 -2.36783e-08 0)
(2.9 -1.58884e-08 0)
(2.9 -2.25894e-08 0)
(2.9 -2.30931e-08 0)
(2.9 -2.73152e-08 0)
(2.9 -5.24368e-08 0)
(2.9 -1.79879e-08 0)
(2.9 -9.59514e-10 0)
(2.9 -6.00377e-09 0)
(2.9 2.9747e-08 0)
(2.9 3.4093e-08 0)
(2.9 2.40399e-08 0)
(2.9 -2.36773e-08 0)
(2.9 -7.19294e-08 0)
(2.9 -9.86499e-08 0)
(2.9 -8.74591e-08 0)
(2.9 -6.51279e-08 0)
(2.9 -9.01317e-08 0)
(2.9 -6.581e-08 0)
(2.9 -5.91867e-08 0)
(2.9 -3.0866e-08 0)
(2.9 -1.63406e-09 0)
(2.9 1.24645e-08 0)
(2.9 -2.37401e-08 0)
(2.9 -2.15479e-08 0)
(2.9 -2.71754e-08 0)
(2.9 -3.39327e-08 0)
(2.9 -2.21287e-08 0)
(2.9 -1.97236e-08 0)
(2.9 -1.42693e-08 0)
(2.9 1.10669e-08 0)
(2.9 4.54037e-08 0)
(2.9 1.18963e-08 0)
(2.9 1.3389e-08 0)
(2.9 2.35539e-08 0)
(2.9 -2.86474e-09 0)
(2.9 1.46781e-08 0)
(2.9 4.67466e-08 0)
(2.9 8.71743e-08 0)
(2.9 4.0704e-08 0)
(2.9 -6.32893e-10 0)
(2.9 -2.86002e-09 0)
(2.9 -8.56692e-10 0)
(2.9 -1.08628e-08 0)
(2.9 -1.42528e-08 0)
(2.9 -2.40267e-08 0)
(2.9 -5.62859e-08 0)
(2.9 -5.35662e-08 0)
(2.9 -3.78228e-08 0)
(2.9 -4.49584e-08 0)
(2.9 -2.45742e-09 0)
(2.9 -5.27372e-09 0)
(2.9 -3.10267e-09 0)
(2.9 -1.16087e-08 0)
(2.9 -3.61766e-08 0)
(2.9 -5.32053e-08 0)
(2.9 -4.27539e-08 0)
(2.9 -3.40517e-08 0)
(2.9 -3.16766e-08 0)
(2.9 -3.7265e-08 0)
(2.9 -1.31615e-08 0)
(2.9 1.75494e-08 0)
(2.9 -1.62921e-08 0)
(2.9 -5.26751e-09 0)
(2.9 -8.74203e-09 0)
(2.9 -1.59367e-08 0)
(2.9 1.66594e-08 0)
(2.9 4.34816e-08 0)
(2.9 5.54086e-08 0)
(2.9 4.85788e-08 0)
(2.9 5.39358e-08 0)
(2.9 3.91435e-08 0)
(2.9 -1.29966e-08 0)
(2.9 -5.84861e-08 0)
(2.9 -1.02061e-07 0)
(2.9 -7.46825e-08 0)
(2.9 -5.94715e-08 0)
(2.9 -7.13546e-08 0)
(2.9 -4.67256e-08 0)
(2.9 -5.0087e-08 0)
(2.9 -8.07907e-09 0)
(2.9 -2.36316e-09 0)
(2.9 1.84897e-08 0)
(2.9 -3.04815e-08 0)
(2.9 -2.29161e-08 0)
(2.9 -4.0964e-08 0)
(2.9 -4.94069e-08 0)
(2.9 -2.64827e-08 0)
(2.9 -2.85085e-08 0)
(2.9 -4.13189e-08 0)
(2.9 -5.38456e-09 0)
(2.9 2.79417e-08 0)
(2.9 1.26833e-08 0)
(2.9 6.40926e-09 0)
(2.9 -9.62862e-09 0)
(2.9 -1.69706e-08 0)
(2.9 5.75213e-09 0)
(2.9 3.01563e-08 0)
(2.9 4.93724e-08 0)
(2.9 1.42368e-08 0)
(2.9 -1.6857e-08 0)
(2.9 -1.39461e-08 0)
(2.9 -1.33891e-08 0)
(2.9 -2.06695e-08 0)
(2.9 -2.61424e-08 0)
(2.9 -5.35329e-08 0)
(2.9 -8.09964e-08 0)
(2.9 -6.90087e-08 0)
(2.9 -6.95271e-08 0)
(2.9 -8.82861e-08 0)
(2.9 -1.6815e-09 0)
(2.9 1.01478e-08 0)
(2.9 -6.55943e-09 0)
(2.9 -1.7059e-08 0)
(2.9 -3.2985e-08 0)
(2.9 -3.93656e-08 0)
(2.9 -3.01217e-08 0)
(2.9 -4.35447e-08 0)
(2.9 -3.71836e-08 0)
(2.9 -3.40618e-08 0)
(2.9 -3.10514e-09 0)
(2.9 4.11966e-09 0)
(2.9 1.69817e-08 0)
(2.9 9.27853e-09 0)
(2.9 9.74071e-10 0)
(2.9 4.4941e-09 0)
(2.9 3.03432e-08 0)
(2.9 6.52708e-08 0)
(2.9 9.45299e-08 0)
(2.9 3.94675e-08 0)
(2.9 1.40886e-08 0)
(2.9 -1.81694e-09 0)
(2.9 -2.07177e-08 0)
(2.9 -4.73586e-08 0)
(2.9 -6.47145e-08 0)
(2.9 -4.40312e-08 0)
(2.9 -3.82697e-08 0)
(2.9 -2.59716e-09 0)
(2.9 -1.42044e-08 0)
(2.9 -2.10375e-08 0)
(2.9 -3.55523e-08 0)
(2.9 -1.75161e-08 0)
(2.9 2.74921e-09 0)
(2.9 -7.59547e-09 0)
(2.9 -3.39731e-08 0)
(2.9 -6.77037e-08 0)
(2.9 -8.32035e-08 0)
(2.9 -5.99525e-08 0)
(2.9 -9.29845e-08 0)
(2.9 -7.15057e-08 0)
(2.9 -2.21254e-08 0)
(2.9 1.63099e-08 0)
(2.9 -3.507e-09 0)
(2.9 -1.18998e-08 0)
(2.9 -2.86656e-08 0)
(2.9 -2.46839e-08 0)
(2.9 -8.78891e-09 0)
(2.9 5.32064e-09 0)
(2.9 1.6522e-08 0)
(2.9 -8.45173e-09 0)
(2.9 -2.66352e-08 0)
(2.9 -2.08697e-08 0)
(2.9 -1.84928e-08 0)
(2.9 -2.06975e-08 0)
(2.9 -3.64732e-08 0)
(2.9 -7.3283e-08 0)
(2.9 -8.67087e-08 0)
(2.9 -8.87301e-08 0)
(2.9 -1.07828e-07 0)
(2.9 -1.16201e-07 0)
(2.9 -6.05513e-09 0)
(2.9 -9.06136e-09 0)
(2.9 -9.58299e-09 0)
(2.9 -1.41599e-08 0)
(2.9 -1.85317e-08 0)
(2.9 -2.16515e-08 0)
(2.9 -1.95359e-08 0)
(2.9 -1.5481e-08 0)
(2.9 -2.52858e-08 0)
(2.9 -2.93423e-08 0)
(2.9 1.1203e-10 0)
(2.9 2.02087e-08 0)
(2.9 4.27464e-08 0)
(2.9 1.42327e-08 0)
(2.9 2.51205e-09 0)
(2.9 6.15445e-09 0)
(2.9 2.14633e-08 0)
(2.9 7.44697e-08 0)
(2.9 7.98686e-08 0)
(2.9 1.02593e-08 0)
(2.9 -2.52167e-08 0)
(2.9 -3.13261e-08 0)
(2.9 -2.34345e-08 0)
(2.9 1.75535e-08 0)
(2.9 1.28257e-08 0)
(2.9 -2.64951e-09 0)
(2.9 -1.99429e-08 0)
(2.9 3.07199e-08 0)
(2.9 6.26742e-09 0)
(2.9 1.76616e-09 0)
(2.9 -1.88367e-08 0)
(2.9 -1.78308e-08 0)
(2.9 2.88262e-09 0)
(2.9 6.43357e-09 0)
(2.9 -4.93637e-08 0)
(2.9 -8.19563e-08 0)
(2.9 -7.86301e-08 0)
(2.9 -8.54374e-08 0)
(2.9 -9.63938e-08 0)
(2.9 -7.91824e-08 0)
(2.9 -2.87122e-08 0)
(2.9 1.06303e-08 0)
(2.9 9.49344e-09 0)
(2.9 -1.61531e-08 0)
(2.9 -2.79404e-08 0)
(2.9 -2.74379e-08 0)
(2.9 -2.39971e-08 0)
(2.9 -1.37639e-08 0)
(2.9 -6.3123e-09 0)
(2.9 -1.66984e-08 0)
(2.9 -2.90762e-08 0)
(2.9 -1.95279e-08 0)
(2.9 -1.51403e-08 0)
(2.9 -1.62977e-08 0)
(2.9 -4.50256e-08 0)
(2.9 -7.26783e-08 0)
(2.9 -7.10821e-08 0)
(2.9 -6.60273e-08 0)
(2.9 -8.89447e-08 0)
(2.9 -1.09311e-07 0)
(2.9 -5.4481e-09 0)
(2.9 -2.72212e-08 0)
(2.9 -9.63246e-09 0)
(2.9 -6.72953e-09 0)
(2.9 -1.87086e-09 0)
(2.9 -1.9745e-08 0)
(2.9 -2.37248e-08 0)
(2.9 1.01929e-08 0)
(2.9 -1.53782e-08 0)
(2.9 -4.08527e-08 0)
(2.9 -7.36612e-09 0)
(2.9 3.25544e-08 0)
(2.9 2.7849e-08 0)
(2.9 9.95021e-09 0)
(2.9 -9.26412e-09 0)
(2.9 3.05832e-09 0)
(2.9 6.19146e-09 0)
(2.9 3.08906e-08 0)
(2.9 2.34328e-08 0)
(2.9 -1.78739e-08 0)
(2.9 -4.70991e-08 0)
(2.9 -4.55518e-08 0)
(2.9 -1.64036e-08 0)
(2.9 4.76091e-08 0)
(2.9 3.88059e-08 0)
(2.9 3.54333e-08 0)
(2.9 1.358e-08 0)
(2.9 2.31189e-08 0)
(2.9 1.16117e-08 0)
(2.9 -1.03443e-08 0)
(2.9 5.95012e-09 0)
(2.9 -6.11653e-09 0)
(2.9 5.55453e-09 0)
(2.9 -2.00924e-08 0)
(2.9 -5.00058e-08 0)
(2.9 -7.68697e-08 0)
(2.9 -6.28315e-08 0)
(2.9 -8.28057e-08 0)
(2.9 -6.73784e-08 0)
(2.9 -7.47091e-08 0)
(2.9 -2.72172e-08 0)
(2.9 7.53933e-09 0)
(2.9 2.82602e-08 0)
(2.9 -6.40781e-09 0)
(2.9 -1.75389e-08 0)
(2.9 -2.92579e-08 0)
(2.9 -2.73489e-08 0)
(2.9 -2.52327e-08 0)
(2.9 -1.53129e-08 0)
(2.9 -1.18976e-08 0)
(2.9 -3.18113e-08 0)
(2.9 -1.15449e-08 0)
(2.9 -7.27401e-09 0)
(2.9 -1.0118e-08 0)
(2.9 -5.00938e-08 0)
(2.9 -4.9274e-08 0)
(2.9 -5.1641e-08 0)
(2.9 -3.87e-08 0)
(2.9 -4.04874e-08 0)
(2.9 -8.8823e-08 0)
(2.9 -2.99689e-09 0)
(2.9 -1.04344e-08 0)
(2.9 -6.43305e-09 0)
(2.9 6.67999e-10 0)
(2.9 9.60323e-09 0)
(2.9 7.59023e-09 0)
(2.9 -1.61478e-09 0)
(2.9 -4.15422e-09 0)
(2.9 -1.63405e-08 0)
(2.9 -2.54948e-08 0)
(2.9 -1.00617e-08 0)
(2.9 1.4922e-08 0)
(2.9 1.62246e-08 0)
(2.9 -7.31088e-10 0)
(2.9 -2.3715e-08 0)
(2.9 -2.35887e-08 0)
(2.9 -1.36354e-08 0)
(2.9 -1.35165e-08 0)
(2.9 -1.32334e-08 0)
(2.9 -3.28255e-08 0)
(2.9 -6.25377e-08 0)
(2.9 -5.4039e-08 0)
(2.9 -1.83798e-08 0)
(2.9 3.81111e-08 0)
(2.9 4.85378e-08 0)
(2.9 6.03037e-08 0)
(2.9 6.62409e-08 0)
(2.9 1.54736e-08 0)
(2.9 2.1462e-08 0)
(2.9 1.61824e-08 0)
(2.9 -1.87528e-09 0)
(2.9 4.97015e-09 0)
(2.9 9.19026e-09 0)
(2.9 4.06469e-09 0)
(2.9 -3.36726e-08 0)
(2.9 -7.19383e-08 0)
(2.9 -7.2831e-08 0)
(2.9 -6.72406e-08 0)
(2.9 -6.73493e-08 0)
(2.9 -8.08626e-08 0)
(2.9 -2.32436e-08 0)
(2.9 5.03723e-09 0)
(2.9 1.82341e-08 0)
(2.9 5.61186e-09 0)
(2.9 -8.25174e-09 0)
(2.9 -3.07536e-08 0)
(2.9 -2.52316e-08 0)
(2.9 -3.19651e-08 0)
(2.9 -1.53814e-08 0)
(2.9 6.12411e-10 0)
(2.9 -1.25745e-09 0)
(2.9 1.28083e-09 0)
(2.9 1.56359e-09 0)
(2.9 3.33829e-10 0)
(2.9 -9.45841e-09 0)
(2.9 -1.94095e-08 0)
(2.9 -4.52166e-08 0)
(2.9 -4.73891e-09 0)
(2.9 -1.96248e-08 0)
(2.9 -8.16547e-08 0)
(2.9 -3.39125e-09 0)
(2.9 7.30558e-09 0)
(2.9 -2.08513e-09 0)
(2.9 4.51978e-09 0)
(2.9 1.23122e-08 0)
(2.9 3.03862e-08 0)
(2.9 1.5555e-08 0)
(2.9 -1.25362e-08 0)
(2.9 -1.43408e-08 0)
(2.9 -9.2607e-09 0)
(2.9 -2.42105e-09 0)
(2.9 8.94606e-09 0)
(2.9 8.83627e-09 0)
(2.9 -7.6492e-09 0)
(2.9 -2.14676e-08 0)
(2.9 -4.42219e-08 0)
(2.9 -3.23539e-08 0)
(2.9 -3.87121e-08 0)
(2.9 -2.72528e-08 0)
(2.9 -3.87158e-08 0)
(2.9 -8.92478e-08 0)
(2.9 -6.50435e-08 0)
(2.9 -3.95564e-08 0)
(2.9 2.88867e-08 0)
(2.9 8.87008e-08 0)
(2.9 6.90241e-08 0)
(2.9 8.26915e-08 0)
(2.9 4.44651e-08 0)
(2.9 3.36386e-08 0)
(2.9 4.1365e-08 0)
(2.9 -1.54419e-08 0)
(2.9 1.26439e-08 0)
(2.9 1.81667e-09 0)
(2.9 3.2064e-08 0)
(2.9 -1.84759e-08 0)
(2.9 -7.77464e-08 0)
(2.9 -8.24714e-08 0)
(2.9 -5.19143e-08 0)
(2.9 -7.19855e-08 0)
(2.9 -6.5223e-08 0)
(2.9 -1.61364e-08 0)
(2.9 4.88966e-09 0)
(2.9 1.65239e-08 0)
(2.9 1.60948e-08 0)
(2.9 -8.90384e-09 0)
(2.9 -4.56216e-10 0)
(2.9 -2.09336e-08 0)
(2.9 -3.36809e-08 0)
(2.9 -1.00866e-08 0)
(2.9 1.26589e-08 0)
(2.9 1.51368e-08 0)
(2.9 9.82663e-09 0)
(2.9 7.85778e-09 0)
(2.9 1.11052e-08 0)
(2.9 2.96703e-08 0)
(2.9 4.87031e-09 0)
(2.9 -2.00127e-08 0)
(2.9 3.42967e-08 0)
(2.9 2.63329e-09 0)
(2.9 -5.3462e-08 0)
(2.9 -2.1173e-09 0)
(2.9 -1.11622e-08 0)
(2.9 1.38196e-09 0)
(2.9 5.44925e-09 0)
(2.9 1.01816e-08 0)
(2.9 1.52214e-08 0)
(2.9 9.90966e-10 0)
(2.9 -1.07432e-08 0)
(2.9 -2.4671e-09 0)
(2.9 1.34191e-08 0)
(2.9 1.11549e-08 0)
(2.9 6.55441e-09 0)
(2.9 6.49626e-09 0)
(2.9 -3.25751e-09 0)
(2.9 -1.12015e-08 0)
(2.9 -3.5998e-08 0)
(2.9 -3.44389e-08 0)
(2.9 -4.73773e-08 0)
(2.9 -2.60184e-08 0)
(2.9 -3.91451e-08 0)
(2.9 -8.78594e-08 0)
(2.9 -7.89544e-08 0)
(2.9 -2.98968e-08 0)
(2.9 1.11956e-08 0)
(2.9 8.94647e-08 0)
(2.9 6.55621e-08 0)
(2.9 6.96504e-08 0)
(2.9 6.85743e-08 0)
(2.9 3.88697e-08 0)
(2.9 3.16186e-08 0)
(2.9 -9.91562e-09 0)
(2.9 1.18861e-08 0)
(2.9 1.13045e-08 0)
(2.9 1.87298e-08 0)
(2.9 -1.09758e-08 0)
(2.9 -6.17653e-08 0)
(2.9 -6.88029e-08 0)
(2.9 -3.93204e-08 0)
(2.9 -5.49077e-08 0)
(2.9 -3.02274e-08 0)
(2.9 -1.0418e-08 0)
(2.9 4.70969e-09 0)
(2.9 1.67214e-08 0)
(2.9 1.81792e-08 0)
(2.9 8.64201e-09 0)
(2.9 2.19906e-08 0)