/*--------------------------------*- C++ -*----------------------------------*\
| =========                 |                                                 |
| \\      /  F ield         | OpenFOAM: The Open Source CFD Toolbox           |
|  \\    /   O peration     | Version:  2412                                  |
|   \\  /    A nd           | Website:  www.openfoam.com                      |
|    \\/     M anipulation  |                                                 |
\*---------------------------------------------------------------------------*/
FoamFile
{
    version     2.0;
    format      ascii;
    arch        "LSB;label=32;scalar=64";
    class       volScalarField;
    location    "0.0501563";
    object      rho;
}
// * * * * * * * * * * * * * * * * * * * * * * * * * * * * * * * * * * * * * //

dimensions      [1 -3 0 0 0 0 0];

internalField   nonuniform List<scalar> 
100
(
1.03239
1.03464
1.02358
1.00837
0.967942
0.955851
0.940139
0.985311
1.04659
1.02128
0.669262
0.526888
0.521122
0.50643
0.503402
0.506479
0.515377
0.546832
0.562726
0.566819
0.56925
0.554095
0.525567
0.519324
0.522743
0.526238
0.534269
0.560094
0.578756
0.58416
0.588257
0.587621
0.585715
0.588014
0.591552
0.592987
0.59082
0.592142
0.596239
0.6021
0.613631
0.62253
0.627426
0.628626
0.620819
0.618387
0.622613
0.637166
0.684305
0.708958
0.715098
0.719386
0.714692
0.678765
0.638395
0.624599
0.623621
0.625913
0.62785
0.627922
0.627082
0.628702
0.632875
0.637791
0.643841
0.650483
0.656274
0.660785
0.65968
0.652305
0.644223
0.640505
0.638706
0.641433
0.646273
0.653225
0.661238
0.66705
0.668403
0.664095
0.655795
0.648
0.639644
0.628168
0.610433
0.590412
0.569851
0.554718
0.545421
0.539961
0.537863
0.537862
0.538555
0.539355
0.540393
0.541089
0.541936
0.542075
0.541955
0.541396
)
;

boundaryField
{
    sides
    {
        type            calculated;
        value           nonuniform List<scalar> 2(0.541396 1.03239);
    }
    empty
    {
        type            empty;
    }
}


// ************************************************************************* //
