/*--------------------------------*- C++ -*----------------------------------*\
| =========                 |                                                 |
| \\      /  F ield         | OpenFOAM: The Open Source CFD Toolbox           |
|  \\    /   O peration     | Version:  2412                                  |
|   \\  /    A nd           | Website:  www.openfoam.com                      |
|    \\/     M anipulation  |                                                 |
\*---------------------------------------------------------------------------*/
FoamFile
{
    version     2.0;
    format      ascii;
    arch        "LSB;label=32;scalar=64";
    class       volScalarField;
    location    "0.055359";
    object      rho;
}
// * * * * * * * * * * * * * * * * * * * * * * * * * * * * * * * * * * * * * //

dimensions      [1 -3 0 0 0 0 0];

internalField   nonuniform List<scalar> 
100
(
1.11721
1.04923
0.975679
0.938768
0.94574
0.998546
1.05568
1.0683
1.04104
1.01025
0.998732
1.00999
1.025
1.02867
1.01173
1.00618
1.03134
1.06507
1.06754
1.02954
1.01907
1.06813
0.78436
0.609677
0.60917
0.611065
0.587499
0.532333
0.510783
0.511272
0.514725
0.519703
0.524534
0.528057
0.529473
0.525076
0.524099
0.527279
0.531194
0.53581
0.542377
0.551051
0.557524
0.561746
0.565635
0.568095
0.561351
0.543218
0.533664
0.534003
0.537591
0.541563
0.545887
0.55102
0.556584
0.560968
0.564456
0.563818
0.556927
0.551192
0.5499
0.550694
0.552012
0.553112
0.553403
0.553148
0.552981
0.553173
0.553789
0.554759
0.556037
0.557947
0.559939
0.561854
0.562557
0.561859
0.55888
0.553658
0.548102
0.542346
0.535006
0.523129
0.509087
0.493645
0.479395
0.470039
0.4644
0.461531
0.459373
0.458319
0.45777
0.457568
0.458032
0.458916
0.46031
0.461294
0.462064
0.46212
0.461953
0.461614
)
;

boundaryField
{
    sides
    {
        type            calculated;
        value           nonuniform List<scalar> 2(0.461614 1.11721);
    }
    empty
    {
        type            empty;
    }
}


// ************************************************************************* //
