/*--------------------------------*- C++ -*----------------------------------*\
| =========                 |                                                 |
| \\      /  F ield         | OpenFOAM: The Open Source CFD Toolbox           |
|  \\    /   O peration     | Version:  2412                                  |
|   \\  /    A nd           | Website:  www.openfoam.com                      |
|    \\/     M anipulation  |                                                 |
\*---------------------------------------------------------------------------*/
FoamFile
{
    version     2.0;
    format      ascii;
    arch        "LSB;label=32;scalar=64";
    class       volVectorField;
    location    "0.000114723";
    object      U;
}
// * * * * * * * * * * * * * * * * * * * * * * * * * * * * * * * * * * * * * //

dimensions      [0 1 -1 0 0 0 0];

internalField   nonuniform List<vector> 
1800
(
(2.9 -7.27772e-14 0)
(2.9 3.57343e-15 0)
(2.9 5.13373e-14 0)
(2.9 -3.21853e-14 0)
(2.9 -2.58682e-14 0)
(2.9 -7.72196e-14 0)
(2.9 -7.3161e-14 0)
(2.9 -5.31738e-14 0)
(2.9 -4.9409e-14 0)
(2.9 -6.18861e-15 0)
(2.9 -7.54507e-15 0)
(2.9 -5.54759e-14 0)
(2.9 -1.05634e-13 0)
(2.9 -7.15301e-14 0)
(2.9 -7.30068e-14 0)
(2.9 -5.2336e-14 0)
(2.9 -4.30134e-15 0)
(2.9 -2.91274e-14 0)
(2.9 -3.25924e-14 0)
(2.9 -4.32402e-14 0)
(2.9 -2.57162e-14 0)
(2.9 -2.63528e-14 0)
(2.9 3.02303e-14 0)
(2.9 9.06512e-15 0)
(2.9 -2.39531e-14 0)
(2.9 -8.44401e-14 0)
(2.9 -5.89215e-14 0)
(2.9 -1.91212e-14 0)
(2.9 4.32468e-14 0)
(2.9 5.94045e-14 0)
(2.9 -3.85408e-14 0)
(2.9 -1.20931e-14 0)
(2.9 -6.58083e-14 0)
(2.9 -5.62973e-14 0)
(2.9 -1.02078e-14 0)
(2.9 7.93668e-15 0)
(2.9 -3.58772e-14 0)
(2.9 6.96223e-15 0)
(2.9 7.43179e-15 0)
(2.9 -2.11521e-14 0)
(2.9 1.36418e-15 0)
(2.9 2.91726e-14 0)
(2.9 4.22319e-15 0)
(2.9 -1.18671e-15 0)
(2.9 -2.56802e-14 0)
(2.9 -4.88136e-14 0)
(2.9 1.36216e-15 0)
(2.9 8.0152e-14 0)
(2.9 4.59998e-14 0)
(2.9 4.81779e-14 0)
(2.9 3.36161e-14 0)
(2.9 -1.18802e-14 0)
(2.9 1.03467e-14 0)
(2.9 -1.1322e-14 0)
(2.9 4.27924e-14 0)
(2.9 3.55445e-14 0)
(2.9 -4.3945e-14 0)
(2.9 -3.8292e-14 0)
(2.9 -6.46882e-14 0)
(2.9 -9.36281e-14 0)
(2.9 -1.59564e-13 0)
(2.9 -4.93535e-14 0)
(2.9 3.04166e-14 0)
(2.9 -2.50736e-14 0)
(2.9 -7.10795e-14 0)
(2.9 -1.66747e-13 0)
(2.9 -1.67974e-13 0)
(2.9 -1.24211e-13 0)
(2.9 -7.61169e-14 0)
(2.9 1.41221e-15 0)
(2.9 -3.24012e-15 0)
(2.9 -1.16385e-13 0)
(2.9 -2.0714e-13 0)
(2.9 -1.77224e-13 0)
(2.9 -6.20603e-14 0)
(2.9 -1.82431e-14 0)
(2.9 1.19745e-14 0)
(2.9 -1.07756e-13 0)
(2.9 -1.09618e-13 0)
(2.9 -9.58439e-14 0)
(2.9 -7.75143e-14 0)
(2.9 -6.17977e-16 0)
(2.9 1.28784e-13 0)
(2.9 3.94373e-14 0)
(2.9 -8.57143e-14 0)
(2.9 -1.88831e-13 0)
(2.9 -1.14211e-13 0)
(2.9 -7.73685e-14 0)
(2.9 7.59585e-15 0)
(2.9 -4.53814e-15 0)
(2.9 -1.0776e-13 0)
(2.9 -3.56321e-14 0)
(2.9 -1.58136e-13 0)
(2.9 -1.40628e-13 0)
(2.9 -6.29464e-14 0)
(2.9 -3.64127e-14 0)
(2.9 -4.73987e-14 0)
(2.9 2.57704e-14 0)
(2.9 -2.11888e-14 0)
(2.9 -8.2545e-14 0)
(2.9 5.77886e-15 0)
(2.9 4.64413e-14 0)
(2.9 8.91189e-15 0)
(2.9 4.00154e-14 0)
(2.9 -8.47354e-14 0)
(2.9 -1.19679e-13 0)
(2.9 -1.19421e-14 0)
(2.9 7.7143e-14 0)
(2.9 1.31709e-13 0)
(2.9 9.03259e-14 0)
(2.9 2.63074e-14 0)
(2.9 -6.85689e-14 0)
(2.9 -3.67524e-14 0)
(2.9 -3.624e-14 0)
(2.9 6.06567e-14 0)
(2.9 4.14548e-14 0)
(2.9 -4.7841e-14 0)
(2.9 -5.17575e-14 0)
(2.9 -1.7805e-13 0)
(2.9 -1.92999e-13 0)
(2.9 -9.39789e-14 0)
(2.9 -7.47014e-14 0)
(2.9 -2.07686e-14 0)
(2.9 -2.59539e-14 0)
(2.9 -1.92189e-14 0)
(2.9 -1.57424e-13 0)
(2.9 -1.86804e-13 0)
(2.9 -7.41251e-14 0)
(2.9 8.82875e-15 0)
(2.9 -6.63963e-14 0)
(2.9 -1.26938e-13 0)
(2.9 -1.74222e-13 0)
(2.9 -1.90298e-13 0)
(2.9 -1.55513e-13 0)
(2.9 -9.07105e-14 0)
(2.9 2.78299e-14 0)
(2.9 -9.1786e-15 0)
(2.9 -7.47239e-14 0)
(2.9 -4.00295e-14 0)
(2.9 -6.14548e-14 0)
(2.9 -6.05843e-15 0)
(2.9 4.09461e-14 0)
(2.9 1.62431e-13 0)
(2.9 7.21004e-14 0)
(2.9 -1.0441e-13 0)
(2.9 -1.98835e-13 0)
(2.9 -8.39911e-14 0)
(2.9 -8.1237e-14 0)
(2.9 1.41822e-15 0)
(2.9 -1.00345e-13 0)
(2.9 -9.18145e-14 0)
(2.9 -1.08445e-13 0)
(2.9 -1.52262e-13 0)
(2.9 -1.56207e-13 0)
(2.9 -7.98444e-14 0)
(2.9 -6.10064e-14 0)
(2.9 -8.03709e-15 0)
(2.9 9.45371e-15 0)
(2.9 -1.22657e-13 0)
(2.9 -1.66134e-13 0)
(2.9 -4.14532e-14 0)
(2.9 -6.5956e-15 0)
(2.9 3.13865e-14 0)
(2.9 -1.31157e-14 0)
(2.9 -6.79404e-14 0)
(2.9 -6.93491e-14 0)
(2.9 -4.81502e-14 0)
(2.9 -1.96827e-14 0)
(2.9 4.92878e-14 0)
(2.9 4.72022e-16 0)
(2.9 -2.93629e-14 0)
(2.9 -4.41543e-14 0)
(2.9 -1.21149e-13 0)
(2.9 -1.21303e-13 0)
(2.9 6.66651e-17 0)
(2.9 -4.13501e-14 0)
(2.9 -5.90767e-14 0)
(2.9 -5.1716e-14 0)
(2.9 -1.4342e-13 0)
(2.9 -1.5052e-13 0)
(2.9 -2.16256e-14 0)
(2.9 -9.76407e-14 0)
(2.9 -4.13786e-14 0)
(2.9 -8.98137e-14 0)
(2.9 -3.43668e-14 0)
(2.9 -1.11921e-13 0)
(2.9 -1.3572e-13 0)
(2.9 -9.04565e-14 0)
(2.9 -4.11341e-14 0)
(2.9 -1.21698e-13 0)
(2.9 -1.61474e-13 0)
(2.9 -2.05083e-13 0)
(2.9 -1.44402e-13 0)
(2.9 -1.56264e-13 0)
(2.9 -1.66151e-13 0)
(2.9 -7.5124e-14 0)
(2.9 -7.32698e-14 0)
(2.9 -4.62152e-14 0)
(2.9 2.09277e-14 0)
(2.9 -8.52727e-16 0)
(2.9 6.80521e-14 0)
(2.9 9.2652e-14 0)
(2.9 2.38052e-14 0)
(2.9 -4.64416e-15 0)
(2.9 -5.76672e-14 0)
(2.9 -1.32775e-13 0)
(2.9 -6.11964e-14 0)
(2.9 -3.46652e-14 0)
(2.9 -1.38271e-14 0)
(2.9 -3.1974e-14 0)
(2.9 -3.83168e-14 0)
(2.9 -4.03555e-14 0)
(2.9 -1.1495e-13 0)
(2.9 -7.22306e-14 0)
(2.9 -1.0721e-13 0)
(2.9 -6.06843e-15 0)
(2.9 3.68051e-14 0)
(2.9 -1.27927e-14 0)
(2.9 -1.15426e-13 0)
(2.9 -1.59027e-13 0)
(2.9 -7.15138e-14 0)
(2.9 -7.64189e-14 0)
(2.9 -5.70156e-14 0)
(2.9 -4.32186e-14 0)
(2.9 -7.4402e-14 0)
(2.9 -7.34782e-14 0)
(2.9 -3.4309e-14 0)
(2.9 7.66304e-16 0)
(2.9 -1.06181e-13 0)
(2.9 -1.08386e-13 0)
(2.9 -1.01906e-13 0)
(2.9 -2.26818e-14 0)
(2.9 -6.62411e-14 0)
(2.9 -1.20047e-13 0)
(2.9 -1.11445e-13 0)
(2.9 -9.50835e-14 0)
(2.9 -3.45424e-14 0)
(2.9 -3.51687e-14 0)
(2.9 -4.04819e-14 0)
(2.9 -3.19382e-14 0)
(2.9 -5.49967e-14 0)
(2.9 -1.7749e-13 0)
(2.9 -9.52683e-14 0)
(2.9 -1.26207e-13 0)
(2.9 -6.10113e-14 0)
(2.9 -6.38723e-14 0)
(2.9 -5.04001e-14 0)
(2.9 -7.26661e-14 0)
(2.9 -3.13425e-14 0)
(2.9 -1.42904e-13 0)
(2.9 -1.69368e-13 0)
(2.9 -2.02023e-13 0)
(2.9 -9.90072e-14 0)
(2.9 -5.30273e-14 0)
(2.9 -1.14724e-13 0)
(2.9 -2.14321e-13 0)
(2.9 -1.29574e-13 0)
(2.9 -3.75152e-14 0)
(2.9 7.40574e-14 0)
(2.9 3.31527e-14 0)
(2.9 5.54838e-14 0)
(2.9 1.84056e-14 0)
(2.9 -1.05884e-13 0)
(2.9 -8.64e-14 0)
(2.9 -2.36614e-14 0)
(2.9 -8.88864e-14 0)
(2.9 -1.86324e-14 0)
(2.9 -5.27512e-14 0)
(2.9 -1.53658e-14 0)
(2.9 1.3583e-14 0)
(2.9 -4.99667e-15 0)
(2.9 5.42478e-16 0)
(2.9 -1.96668e-14 0)
(2.9 1.35333e-14 0)
(2.9 -7.75081e-14 0)
(2.9 -4.29701e-14 0)
(2.9 2.2069e-15 0)
(2.9 -7.34967e-14 0)
(2.9 -1.12632e-13 0)
(2.9 -1.21441e-13 0)
(2.9 -7.1203e-14 0)
(2.9 -1.11029e-13 0)
(2.9 -1.35166e-13 0)
(2.9 -8.23914e-14 0)
(2.9 -6.57039e-14 0)
(2.9 -1.15847e-13 0)
(2.9 -2.06346e-14 0)
(2.9 8.52137e-15 0)
(2.9 -1.04168e-13 0)
(2.9 -1.14364e-13 0)
(2.9 -5.04219e-14 0)
(2.9 -4.50198e-14 0)
(2.9 -8.56641e-14 0)
(2.9 -1.63627e-13 0)
(2.9 -2.02522e-13 0)
(2.9 -1.22555e-13 0)
(2.9 -2.32345e-14 0)
(2.9 -2.25634e-14 0)
(2.9 -1.03727e-14 0)
(2.9 6.30814e-14 0)
(2.9 -9.96354e-14 0)
(2.9 -1.22406e-13 0)
(2.9 -9.92508e-14 0)
(2.9 -1.12968e-13 0)
(2.9 -8.11403e-15 0)
(2.9 1.01412e-14 0)
(2.9 4.19863e-14 0)
(2.9 2.56149e-14 0)
(2.9 -8.65632e-14 0)
(2.9 -1.4287e-13 0)
(2.9 -1.93945e-13 0)
(2.9 -1.67632e-13 0)
(2.9 -1.57089e-13 0)
(2.9 -6.87124e-14 0)
(2.9 -1.01135e-13 0)
(2.9 -2.08121e-13 0)
(2.9 -8.13365e-14 0)
(2.9 -2.52463e-14 0)
(2.9 4.01132e-14 0)
(2.9 6.58857e-15 0)
(2.9 -6.13054e-14 0)
(2.9 -8.28601e-14 0)
(2.9 -4.11297e-14 0)
(2.9 -3.96111e-14 0)
(2.9 -7.1024e-15 0)
(2.9 -1.1011e-14 0)
(2.9 6.80932e-14 0)
(2.9 -1.08868e-14 0)
(2.9 -4.17685e-15 0)
(2.9 2.62335e-14 0)
(2.9 -5.90448e-14 0)
(2.9 -2.5017e-14 0)
(2.9 1.33922e-15 0)
(2.9 -5.03679e-14 0)
(2.9 -1.24245e-13 0)
(2.9 -1.5987e-13 0)
(2.9 -1.48882e-13 0)
(2.9 -1.14107e-13 0)
(2.9 -1.40687e-13 0)
(2.9 -8.1613e-14 0)
(2.9 -1.0374e-13 0)
(2.9 -7.74438e-14 0)
(2.9 -6.46322e-14 0)
(2.9 1.48283e-15 0)
(2.9 -2.46152e-14 0)
(2.9 -5.17385e-14 0)
(2.9 -7.74573e-14 0)
(2.9 -7.65537e-14 0)
(2.9 -1.29694e-13 0)
(2.9 -6.72395e-14 0)
(2.9 5.96944e-16 0)
(2.9 -8.54495e-14 0)
(2.9 -1.22954e-13 0)
(2.9 -2.44223e-13 0)
(2.9 -1.82992e-13 0)
(2.9 -1.19229e-13 0)
(2.9 -5.90949e-14 0)
(2.9 2.10361e-14 0)
(2.9 -4.412e-14 0)
(2.9 2.50721e-14 0)
(2.9 -7.0931e-14 0)
(2.9 -2.74478e-14 0)
(2.9 -1.1492e-13 0)
(2.9 -5.16418e-14 0)
(2.9 5.56125e-14 0)
(2.9 6.71972e-14 0)
(2.9 1.15966e-13 0)
(2.9 8.18035e-14 0)
(2.9 -4.48854e-14 0)
(2.9 -1.02935e-13 0)
(2.9 -1.3784e-13 0)
(2.9 -9.94692e-14 0)
(2.9 -1.58281e-13 0)
(2.9 -8.49484e-14 0)
(2.9 -5.53282e-14 0)
(2.9 -1.26969e-13 0)
(2.9 -5.45545e-14 0)
(2.9 -3.14932e-14 0)
(2.9 -2.90481e-14 0)
(2.9 -4.98078e-14 0)
(2.9 -1.39977e-13 0)
(2.9 -1.26092e-13 0)
(2.9 -1.22436e-14 0)
(2.9 -3.39388e-14 0)
(2.9 -9.9929e-15 0)
(2.9 4.07438e-14 0)
(2.9 7.12165e-14 0)
(2.9 5.68313e-14 0)
(2.9 5.18917e-14 0)
(2.9 -1.64242e-15 0)
(2.9 -6.5826e-14 0)
(2.9 -2.87391e-14 0)
(2.9 -4.14905e-14 0)
(2.9 -7.08146e-14 0)
(2.9 -1.59616e-13 0)
(2.9 -2.11825e-13 0)
(2.9 -1.85089e-13 0)
(2.9 -9.73599e-14 0)
(2.9 -1.52215e-13 0)
(2.9 -1.01149e-13 0)
(2.9 -1.45925e-13 0)
(2.9 -1.12042e-14 0)
(2.9 2.43696e-14 0)
(2.9 9.27042e-14 0)
(2.9 3.04925e-14 0)
(2.9 -6.36671e-14 0)
(2.9 -1.14317e-13 0)
(2.9 -8.96135e-14 0)
(2.9 -1.32495e-13 0)
(2.9 -4.62539e-14 0)
(2.9 -5.3001e-14 0)
(2.9 -1.25154e-13 0)
(2.9 -8.67485e-14 0)
(2.9 -1.4986e-13 0)
(2.9 -1.57231e-13 0)
(2.9 -1.03391e-13 0)
(2.9 -9.00883e-14 0)
(2.9 -5.43015e-14 0)
(2.9 -8.18212e-14 0)
(2.9 6.3548e-15 0)
(2.9 5.80307e-15 0)
(2.9 4.03272e-14 0)
(2.9 -1.21945e-13 0)
(2.9 -3.06465e-14 0)
(2.9 -2.14763e-14 0)
(2.9 1.10111e-13 0)
(2.9 1.94167e-13 0)
(2.9 1.21399e-13 0)
(2.9 2.61472e-15 0)
(2.9 -7.78865e-14 0)
(2.9 -6.48106e-14 0)
(2.9 -3.78313e-14 0)
(2.9 -1.21723e-13 0)
(2.9 -1.41687e-13 0)
(2.9 -7.8892e-14 0)
(2.9 -2.55064e-14 0)
(2.9 9.07156e-14 0)
(2.9 1.22639e-14 0)
(2.9 -9.67114e-14 0)
(2.9 -1.3922e-13 0)
(2.9 -9.93882e-14 0)
(2.9 -2.13015e-15 0)
(2.9 5.73794e-14 0)
(2.9 -3.20018e-14 0)
(2.9 1.32303e-14 0)
(2.9 1.06409e-14 0)
(2.9 7.92971e-14 0)
(2.9 1.15517e-13 0)
(2.9 9.74463e-14 0)
(2.9 2.16428e-15 0)
(2.9 -1.03521e-14 0)
(2.9 2.269e-14 0)
(2.9 -1.89738e-14 0)
(2.9 -5.07469e-14 0)
(2.9 -8.77861e-14 0)
(2.9 -1.17768e-13 0)
(2.9 -6.66474e-14 0)
(2.9 1.23806e-14 0)
(2.9 -5.96735e-14 0)
(2.9 -8.39428e-14 0)
(2.9 -6.42078e-14 0)
(2.9 7.6321e-15 0)
(2.9 2.98738e-14 0)
(2.9 7.29735e-14 0)
(2.9 5.34549e-14 0)
(2.9 -4.75878e-14 0)
(2.9 -6.90374e-14 0)
(2.9 -5.24448e-14 0)
(2.9 -6.87845e-14 0)
(2.9 -7.66281e-14 0)
(2.9 -6.17364e-14 0)
(2.9 -8.94218e-14 0)
(2.9 -1.32346e-13 0)
(2.9 -8.92604e-14 0)
(2.9 -8.0104e-14 0)
(2.9 -5.93312e-14 0)
(2.9 -5.58324e-14 0)
(2.9 -8.41609e-14 0)
(2.9 -5.25079e-14 0)
(2.9 -3.90428e-14 0)
(2.9 3.02189e-14 0)
(2.9 -1.0851e-14 0)
(2.9 -1.19215e-14 0)
(2.9 -2.13915e-14 0)
(2.9 -7.14072e-14 0)
(2.9 2.28936e-14 0)
(2.9 6.23124e-14 0)
(2.9 1.22424e-14 0)
(2.9 4.84849e-14 0)
(2.9 -2.02826e-14 0)
(2.9 -3.46882e-14 0)
(2.9 -7.89552e-14 0)
(2.9 -1.45497e-13 0)
(2.9 -1.15924e-13 0)
(2.9 -8.65826e-14 0)
(2.9 2.05697e-14 0)
(2.9 7.52988e-14 0)
(2.9 5.2851e-14 0)
(2.9 -1.00616e-13 0)
(2.9 -1.42802e-13 0)
(2.9 -3.11703e-14 0)
(2.9 2.29376e-14 0)
(2.9 -3.2154e-14 0)
(2.9 -4.1115e-14 0)
(2.9 -1.49411e-15 0)
(2.9 2.12803e-14 0)
(2.9 1.16664e-13 0)
(2.9 9.84553e-14 0)
(2.9 1.12945e-13 0)
(2.9 4.17809e-14 0)
(2.9 4.26596e-14 0)
(2.9 -3.66158e-15 0)
(2.9 3.75458e-14 0)
(2.9 -1.90339e-14 0)
(2.9 -1.08338e-14 0)
(2.9 1.10092e-14 0)
(2.9 5.38875e-14 0)
(2.9 6.13013e-14 0)
(2.9 2.32715e-14 0)
(2.9 1.44582e-14 0)
(2.9 -3.46693e-15 0)
(2.9 8.48737e-14 0)
(2.9 7.65286e-14 0)
(2.9 4.09577e-14 0)
(2.9 7.74959e-14 0)
(2.9 7.98392e-14 0)
(2.9 -1.53656e-14 0)
(2.9 -2.03806e-14 0)
(2.9 9.30879e-15 0)
(2.9 2.1087e-14 0)
(2.9 1.66526e-14 0)
(2.9 6.63974e-15 0)
(2.9 -6.45472e-14 0)
(2.9 -5.94756e-14 0)
(2.9 8.62908e-15 0)
(2.9 -2.93391e-14 0)
(2.9 -2.25887e-14 0)
(2.9 -3.33697e-14 0)
(2.9 -3.49251e-14 0)
(2.9 -6.64177e-14 0)
(2.9 -1.23909e-14 0)
(2.9 -1.71831e-14 0)
(2.9 6.0054e-14 0)
(2.9 5.67728e-14 0)
(2.9 5.075e-15 0)
(2.9 -6.79978e-14 0)
(2.9 -1.21362e-13 0)
(2.9 -1.71091e-14 0)
(2.9 7.54097e-14 0)
(2.9 1.07231e-14 0)
(2.9 1.39911e-14 0)
(2.9 -5.13804e-14 0)
(2.9 -9.453e-14 0)
(2.9 -3.34334e-14 0)
(2.9 -4.93769e-15 0)
(2.9 9.37677e-14 0)
(2.9 5.65629e-14 0)
(2.9 1.16846e-13 0)
(2.9 -3.64014e-14 0)
(2.9 -8.33749e-14 0)
(2.9 -6.11912e-14 0)
(2.9 1.63548e-15 0)
(2.9 -8.32947e-14 0)
(2.9 -4.41922e-14 0)
(2.9 -5.45172e-14 0)
(2.9 2.17725e-14 0)
(2.9 3.75614e-14 0)
(2.9 7.08033e-14 0)
(2.9 6.33496e-14 0)
(2.9 4.26819e-14 0)
(2.9 -8.97858e-16 0)
(2.9 -7.76114e-14 0)
(2.9 5.70354e-14 0)
(2.9 -1.4218e-14 0)
(2.9 8.28653e-14 0)
(2.9 8.85265e-14 0)
(2.9 8.65474e-14 0)
(2.9 2.21206e-14 0)
(2.9 -2.28424e-15 0)
(2.9 3.63717e-14 0)
(2.9 1.06135e-13 0)
(2.9 9.88834e-14 0)
(2.9 9.53796e-14 0)
(2.9 5.08177e-14 0)
(2.9 5.53189e-14 0)
(2.9 1.03029e-13 0)
(2.9 1.7804e-14 0)
(2.9 -5.33856e-15 0)
(2.9 9.50167e-14 0)
(2.9 1.03406e-13 0)
(2.9 2.67775e-14 0)
(2.9 9.40654e-14 0)
(2.9 -3.68753e-15 0)
(2.9 -3.54059e-15 0)
(2.9 5.22273e-14 0)
(2.9 -1.43273e-14 0)
(2.9 -4.42935e-14 0)
(2.9 -8.21607e-14 0)
(2.9 -1.86208e-14 0)
(2.9 8.38035e-15 0)
(2.9 -5.6262e-14 0)
(2.9 -1.30858e-14 0)
(2.9 9.84439e-14 0)
(2.9 4.38737e-14 0)
(2.9 -3.22236e-14 0)
(2.9 -1.23284e-13 0)
(2.9 -8.59766e-14 0)
(2.9 3.78705e-14 0)
(2.9 9.80621e-14 0)
(2.9 1.79903e-14 0)
(2.9 5.4423e-14 0)
(2.9 4.28307e-14 0)
(2.9 6.18179e-14 0)
(2.9 3.3397e-14 0)
(2.9 5.46092e-14 0)
(2.9 1.95127e-13 0)
(2.9 9.55956e-14 0)
(2.9 9.46645e-14 0)
(2.9 1.06586e-13 0)
(2.9 -2.58441e-14 0)
(2.9 -8.2647e-14 0)
(2.9 -1.49542e-14 0)
(2.9 -7.12856e-14 0)
(2.9 -3.65093e-14 0)
(2.9 -4.55631e-14 0)
(2.9 -1.66611e-14 0)
(2.9 -6.13086e-14 0)
(2.9 3.6056e-14 0)
(2.9 -3.18294e-14 0)
(2.9 2.20489e-15 0)
(2.9 3.62668e-15 0)
(2.9 -9.65895e-14 0)
(2.9 6.85731e-15 0)
(2.9 -3.59131e-15 0)
(2.9 9.85642e-14 0)
(2.9 1.7684e-13 0)
(2.9 1.17473e-13 0)
(2.9 -7.31791e-15 0)
(2.9 1.73174e-14 0)
(2.9 1.05842e-13 0)
(2.9 1.02808e-13 0)
(2.9 5.00426e-14 0)
(2.9 7.72445e-14 0)
(2.9 2.50429e-14 0)
(2.9 -3.77414e-14 0)
(2.9 3.65862e-14 0)
(2.9 8.96454e-15 0)
(2.9 1.48885e-14 0)
(2.9 6.30789e-14 0)
(2.9 3.23861e-14 0)
(2.9 -8.23619e-15 0)
(2.9 3.55157e-14 0)
(2.9 -3.06108e-15 0)
(2.9 1.68409e-14 0)
(2.9 2.65666e-14 0)
(2.9 3.48792e-14 0)
(2.9 -3.27746e-15 0)
(2.9 -1.17335e-13 0)
(2.9 5.43378e-14 0)
(2.9 1.1842e-13 0)
(2.9 -2.60371e-14 0)
(2.9 2.85589e-14 0)
(2.9 3.29722e-14 0)
(2.9 -2.05874e-14 0)
(2.9 -5.55736e-14 0)
(2.9 -1.12693e-13 0)
(2.9 -8.10417e-14 0)
(2.9 4.58389e-14 0)
(2.9 1.17065e-13 0)
(2.9 3.27383e-14 0)
(2.9 7.63032e-14 0)
(2.9 6.69913e-14 0)
(2.9 8.06664e-14 0)
(2.9 4.39225e-15 0)
(2.9 3.08388e-14 0)
(2.9 9.56632e-14 0)
(2.9 2.00595e-14 0)
(2.9 -9.56981e-16 0)
(2.9 8.18189e-14 0)
(2.9 2.47463e-14 0)
(2.9 -3.44733e-14 0)
(2.9 -5.04e-14 0)
(2.9 -4.57981e-14 0)
(2.9 -9.98271e-16 0)
(2.9 -2.25862e-14 0)
(2.9 -5.30315e-14 0)
(2.9 -3.17385e-14 0)
(2.9 -4.48432e-14 0)
(2.9 -8.06029e-14 0)
(2.9 8.18545e-15 0)
(2.9 8.17279e-14 0)
(2.9 -3.72304e-14 0)
(2.9 -7.26863e-14 0)
(2.9 2.61444e-14 0)
(2.9 9.99778e-14 0)
(2.9 1.26922e-13 0)
(2.9 7.29547e-14 0)
(2.9 2.89754e-14 0)
(2.9 7.97449e-14 0)
(2.9 5.26485e-14 0)
(2.9 1.0614e-13 0)
(2.9 2.06994e-14 0)
(2.9 6.02377e-14 0)
(2.9 1.56824e-14 0)
(2.9 -6.0341e-14 0)
(2.9 -4.99064e-14 0)
(2.9 2.50267e-14 0)
(2.9 -1.65465e-14 0)
(2.9 -2.9027e-14 0)
(2.9 -8.40565e-15 0)
(2.9 -4.54407e-14 0)
(2.9 -2.10489e-14 0)
(2.9 -4.0366e-15 0)
(2.9 5.33288e-14 0)
(2.9 5.67152e-15 0)
(2.9 1.85012e-14 0)
(2.9 -4.31923e-14 0)
(2.9 -4.4121e-14 0)
(2.9 6.01039e-14 0)
(2.9 1.50219e-13 0)
(2.9 1.66297e-14 0)
(2.9 -7.88815e-15 0)
(2.9 -1.08156e-14 0)
(2.9 6.20643e-14 0)
(2.9 -1.31083e-14 0)
(2.9 -2.84765e-14 0)
(2.9 -4.54288e-14 0)
(2.9 -3.38396e-14 0)
(2.9 1.88259e-15 0)
(2.9 -2.06364e-15 0)
(2.9 7.26426e-14 0)
(2.9 7.13195e-14 0)
(2.9 7.83712e-14 0)
(2.9 7.64446e-14 0)
(2.9 4.20093e-14 0)
(2.9 -5.48815e-14 0)
(2.9 -4.36346e-14 0)
(2.9 -3.24211e-14 0)
(2.9 2.76517e-14 0)
(2.9 1.04193e-13 0)
(2.9 5.2314e-14 0)
(2.9 -1.86731e-14 0)
(2.9 2.95426e-14 0)
(2.9 -1.50264e-14 0)
(2.9 -4.06211e-14 0)
(2.9 2.27602e-14 0)
(2.9 -5.41243e-14 0)
(2.9 -1.02946e-13 0)
(2.9 -6.97864e-14 0)
(2.9 6.5686e-14 0)
(2.9 9.17954e-14 0)
(2.9 1.51423e-14 0)
(2.9 5.66765e-16 0)
(2.9 4.36331e-14 0)
(2.9 9.97726e-14 0)
(2.9 7.23506e-14 0)
(2.9 7.76315e-14 0)
(2.9 8.63497e-14 0)
(2.9 1.28911e-13 0)
(2.9 6.59997e-14 0)
(2.9 3.34718e-14 0)
(2.9 -2.38091e-14 0)
(2.9 1.62156e-14 0)
(2.9 -6.56838e-15 0)
(2.9 -3.86716e-14 0)
(2.9 3.39867e-15 0)
(2.9 1.46084e-14 0)
(2.9 -4.4054e-14 0)
(2.9 -1.45335e-14 0)
(2.9 2.51633e-14 0)
(2.9 1.08546e-14 0)
(2.9 1.35409e-15 0)
(2.9 4.28221e-14 0)
(2.9 6.91969e-14 0)
(2.9 4.03854e-14 0)
(2.9 3.691e-14 0)
(2.9 -3.52833e-14 0)
(2.9 1.99968e-14 0)
(2.9 7.21986e-14 0)
(2.9 1.56375e-13 0)
(2.9 -6.86983e-14 0)
(2.9 -5.57477e-14 0)
(2.9 5.25298e-14 0)
(2.9 1.0496e-13 0)
(2.9 1.00026e-14 0)
(2.9 -1.54887e-14 0)
(2.9 3.30544e-14 0)
(2.9 -4.92822e-14 0)
(2.9 -6.17526e-14 0)
(2.9 5.23295e-14 0)
(2.9 9.46723e-14 0)
(2.9 1.04181e-13 0)
(2.9 1.74056e-13 0)
(2.9 1.54259e-13 0)
(2.9 3.40476e-14 0)
(2.9 -1.33041e-13 0)
(2.9 -3.85553e-14 0)
(2.9 7.02306e-15 0)
(2.9 3.31173e-14 0)
(2.9 1.41055e-13 0)
(2.9 1.17352e-13 0)
(2.9 7.90279e-14 0)
(2.9 1.0967e-13 0)
(2.9 2.4246e-14 0)
(2.9 2.90258e-14 0)
(2.9 2.43786e-14 0)
(2.9 -1.06309e-13 0)
(2.9 -1.6692e-13 0)
(2.9 -6.83644e-14 0)
(2.9 8.78804e-14 0)
(2.9 1.08089e-13 0)
(2.9 7.78764e-14 0)
(2.9 5.39639e-14 0)
(2.9 9.51129e-14 0)
(2.9 3.0341e-14 0)
(2.9 4.803e-14 0)
(2.9 8.11491e-14 0)
(2.9 4.64006e-14 0)
(2.9 1.53378e-13 0)
(2.9 7.40163e-14 0)
(2.9 2.34456e-14 0)
(2.9 -5.73112e-14 0)
(2.9 -6.07537e-14 0)
(2.9 -6.47135e-14 0)
(2.9 8.9237e-16 0)
(2.9 5.60924e-14 0)
(2.9 5.99913e-14 0)
(2.9 -8.59095e-15 0)
(2.9 4.59582e-14 0)
(2.9 4.94522e-14 0)
(2.9 6.96784e-14 0)
(2.9 6.34826e-14 0)
(2.9 2.26821e-14 0)
(2.9 1.66079e-14 0)
(2.9 2.48182e-14 0)
(2.9 1.39145e-14 0)
(2.9 -1.28024e-14 0)
(2.9 1.15824e-13 0)
(2.9 1.10521e-13 0)
(2.9 1.79825e-13 0)
(2.9 -1.51007e-13 0)
(2.9 -1.03715e-13 0)
(2.9 4.27596e-15 0)
(2.9 4.88243e-14 0)
(2.9 9.15615e-15 0)
(2.9 1.369e-15 0)
(2.9 4.4014e-14 0)
(2.9 2.08791e-14 0)
(2.9 3.11478e-14 0)
(2.9 1.2917e-13 0)
(2.9 6.1995e-14 0)
(2.9 5.62007e-14 0)
(2.9 1.13391e-13 0)
(2.9 9.72491e-14 0)
(2.9 -2.66884e-14 0)
(2.9 -7.9901e-14 0)
(2.9 4.08604e-14 0)
(2.9 1.2058e-13 0)
(2.9 1.08805e-13 0)
(2.9 1.35038e-13 0)
(2.9 1.35593e-13 0)
(2.9 1.1144e-13 0)
(2.9 8.24716e-14 0)
(2.9 1.0937e-13 0)
(2.9 1.29287e-13 0)
(2.9 1.25705e-14 0)
(2.9 -6.13932e-14 0)
(2.9 -1.39012e-13 0)
(2.9 -2.31971e-14 0)
(2.9 7.07671e-14 0)
(2.9 7.23328e-14 0)
(2.9 3.37907e-14 0)
(2.9 2.09923e-14 0)
(2.9 7.56855e-14 0)
(2.9 -3.74636e-15 0)
(2.9 2.57766e-14 0)
(2.9 1.59249e-15 0)
(2.9 -5.87936e-14 0)
(2.9 3.07357e-14 0)
(2.9 5.65698e-15 0)
(2.9 1.89552e-14 0)
(2.9 -1.9901e-14 0)
(2.9 -5.81891e-14 0)
(2.9 -1.09421e-13 0)
(2.9 -6.70626e-14 0)
(2.9 -4.48736e-14 0)
(2.9 4.7424e-14 0)
(2.9 -3.82783e-14 0)
(2.9 1.74556e-14 0)
(2.9 -3.74387e-14 0)
(2.9 -1.0845e-14 0)
(2.9 -1.02256e-14 0)
(2.9 -1.52857e-14 0)
(2.9 1.086e-14 0)
(2.9 -9.0443e-15 0)
(2.9 -6.20037e-15 0)
(2.9 7.17756e-14 0)
(2.9 8.77173e-14 0)
(2.9 3.81612e-14 0)
(2.9 6.03634e-14 0)
(2.9 -5.68216e-14 0)
(2.9 -1.00271e-13 0)
(2.9 -4.22594e-14 0)
(2.9 2.35525e-14 0)
(2.9 6.6083e-14 0)
(2.9 4.04943e-14 0)
(2.9 -3.67749e-15 0)
(2.9 4.37192e-14 0)
(2.9 4.64586e-14 0)
(2.9 7.90513e-14 0)
(2.9 2.44179e-14 0)
(2.9 1.05339e-14 0)
(2.9 9.34845e-16 0)
(2.9 2.81605e-14 0)
(2.9 3.91676e-14 0)
(2.9 1.69558e-14 0)
(2.9 4.50673e-14 0)
(2.9 1.06027e-13 0)
(2.9 1.44683e-13 0)
(2.9 1.31659e-13 0)
(2.9 1.20992e-13 0)
(2.9 7.4252e-14 0)
(2.9 3.8415e-14 0)
(2.9 1.06123e-13 0)
(2.9 5.69484e-14 0)
(2.9 6.93961e-14 0)
(2.9 3.71208e-15 0)
(2.9 2.39116e-15 0)
(2.9 4.66075e-14 0)
(2.9 3.69444e-14 0)
(2.9 1.13577e-14 0)
(2.9 9.65575e-14 0)
(2.9 2.19795e-14 0)
(2.9 2.17352e-14 0)
(2.9 4.47875e-14 0)
(2.9 -3.75654e-14 0)
(2.9 -8.90767e-14 0)
(2.9 -3.19416e-14 0)
(2.9 -7.99896e-14 0)
(2.9 -7.63796e-14 0)
(2.9 -5.26611e-14 0)
(2.9 -8.50272e-15 0)
(2.9 -8.54558e-14 0)
(2.9 -3.42204e-14 0)
(2.9 -7.3728e-14 0)
(2.9 -1.40072e-13 0)
(2.9 -7.16864e-14 0)
(2.9 -1.01192e-13 0)
(2.9 4.73543e-15 0)
(2.9 -5.68729e-14 0)
(2.9 1.79339e-15 0)
(2.9 -4.02809e-14 0)
(2.9 6.77158e-14 0)
(2.9 -2.36652e-15 0)
(2.9 -3.90126e-14 0)
(2.9 -5.89751e-15 0)
(2.9 1.20116e-13 0)
(2.9 8.45293e-14 0)
(2.9 -1.58358e-14 0)
(2.9 -7.03303e-14 0)
(2.9 -3.02879e-14 0)
(2.9 -1.01462e-13 0)
(2.9 1.9265e-15 0)
(2.9 -2.21883e-14 0)
(2.9 2.66193e-14 0)
(2.9 9.53296e-14 0)
(2.9 3.55372e-14 0)
(2.9 2.13683e-14 0)
(2.9 5.5906e-14 0)
(2.9 7.19838e-14 0)
(2.9 7.87006e-14 0)
(2.9 4.88792e-14 0)
(2.9 -2.65049e-14 0)
(2.9 6.4611e-14 0)
(2.9 9.38917e-14 0)
(2.9 6.0163e-14 0)
(2.9 -6.91855e-14 0)
(2.9 4.10812e-14 0)
(2.9 1.92283e-13 0)
(2.9 1.1037e-13 0)
(2.9 5.95761e-14 0)
(2.9 3.4965e-14 0)
(2.9 1.66733e-14 0)
(2.9 6.16194e-14 0)
(2.9 -4.52049e-14 0)
(2.9 2.92917e-14 0)
(2.9 1.19295e-13 0)
(2.9 1.76099e-13 0)
(2.9 6.71673e-14 0)
(2.9 8.32989e-15 0)
(2.9 -3.02637e-14 0)
(2.9 1.21231e-13 0)
(2.9 3.49272e-14 0)
(2.9 -6.00525e-14 0)
(2.9 5.89845e-14 0)
(2.9 -3.81747e-14 0)
(2.9 -6.45167e-14 0)
(2.9 2.28306e-14 0)
(2.9 -1.01673e-13 0)
(2.9 -6.81941e-14 0)
(2.9 -1.15748e-13 0)
(2.9 -2.16829e-14 0)
(2.9 -1.13223e-13 0)
(2.9 3.37715e-14 0)
(2.9 4.2947e-14 0)
(2.9 -6.64912e-14 0)
(2.9 -1.26303e-13 0)
(2.9 -6.89098e-14 0)
(2.9 -5.43807e-14 0)
(2.9 -1.42466e-14 0)
(2.9 -3.73494e-14 0)
(2.9 -8.04524e-14 0)
(2.9 6.72418e-14 0)
(2.9 -5.01381e-14 0)
(2.9 -5.11234e-14 0)
(2.9 2.94425e-14 0)
(2.9 8.73272e-14 0)
(2.9 1.28223e-13 0)
(2.9 -2.26672e-14 0)
(2.9 -1.79586e-13 0)
(2.9 -5.72418e-14 0)
(2.9 -4.96074e-14 0)
(2.9 -6.95643e-15 0)
(2.9 -8.46425e-14 0)
(2.9 -8.68956e-15 0)
(2.9 3.45854e-14 0)
(2.9 5.87138e-14 0)
(2.9 6.6991e-14 0)
(2.9 1.24864e-13 0)
(2.9 6.51101e-14 0)
(2.9 4.03898e-14 0)
(2.9 2.43344e-14 0)
(2.9 1.44416e-14 0)
(2.9 3.30111e-14 0)
(2.9 3.81922e-14 0)
(2.9 2.00765e-14 0)
(2.9 -5.19523e-14 0)
(2.9 4.50595e-14 0)
(2.9 9.34081e-14 0)
(2.9 3.89044e-14 0)
(2.9 3.97711e-14 0)
(2.9 4.38561e-14 0)
(2.9 6.0229e-14 0)
(2.9 9.80641e-14 0)
(2.9 1.61436e-14 0)
(2.9 -5.6852e-15 0)
(2.9 2.88687e-14 0)
(2.9 1.03976e-13 0)
(2.9 2.64525e-14 0)
(2.9 6.37458e-14 0)
(2.9 2.43378e-14 0)
(2.9 9.33285e-14 0)
(2.9 2.63887e-14 0)
(2.9 -2.17503e-15 0)
(2.9 4.89143e-14 0)
(2.9 1.28936e-14 0)
(2.9 -3.66976e-14 0)
(2.9 1.95662e-14 0)
(2.9 -3.65777e-14 0)
(2.9 -2.71938e-14 0)
(2.9 -9.41727e-14 0)
(2.9 -1.5697e-14 0)
(2.9 -2.10828e-14 0)
(2.9 -1.22785e-14 0)
(2.9 2.50182e-14 0)
(2.9 9.27611e-15 0)
(2.9 -3.43124e-14 0)
(2.9 -1.31802e-14 0)
(2.9 1.96612e-14 0)
(2.9 3.00043e-14 0)
(2.9 8.8589e-15 0)
(2.9 1.58762e-14 0)
(2.9 5.51051e-14 0)
(2.9 -6.1842e-15 0)
(2.9 1.75497e-14 0)
(2.9 7.41888e-14 0)
(2.9 7.45739e-14 0)
(2.9 7.32396e-14 0)
(2.9 -2.67182e-14 0)
(2.9 -1.74691e-13 0)
(2.9 -4.40547e-14 0)
(2.9 -2.64784e-14 0)
(2.9 -5.42625e-14 0)
(2.9 -1.5073e-13 0)
(2.9 -4.57576e-14 0)
(2.9 -3.4344e-14 0)
(2.9 -1.1359e-14 0)
(2.9 -2.24191e-14 0)
(2.9 6.31761e-14 0)
(2.9 9.9736e-14 0)
(2.9 3.60004e-14 0)
(2.9 -1.82026e-14 0)
(2.9 -4.84174e-15 0)
(2.9 -2.23511e-14 0)
(2.9 -2.22361e-14 0)
(2.9 -3.47366e-14 0)
(2.9 -1.27049e-14 0)
(2.9 1.99281e-14 0)
(2.9 -6.93637e-14 0)
(2.9 2.90601e-14 0)
(2.9 3.08448e-14 0)
(2.9 3.07587e-14 0)
(2.9 5.1456e-14 0)
(2.9 1.09057e-13 0)
(2.9 5.72028e-14 0)
(2.9 1.50399e-14 0)
(2.9 -5.29829e-14 0)
(2.9 -5.11292e-14 0)
(2.9 3.24375e-14 0)
(2.9 8.92699e-14 0)
(2.9 5.43175e-14 0)
(2.9 8.3919e-14 0)
(2.9 1.83783e-14 0)
(2.9 5.61217e-14 0)
(2.9 6.91621e-14 0)
(2.9 6.60074e-14 0)
(2.9 1.48452e-14 0)
(2.9 -4.37243e-14 0)
(2.9 2.52325e-14 0)
(2.9 5.80216e-14 0)
(2.9 1.37333e-14 0)
(2.9 2.70798e-14 0)
(2.9 7.78976e-14 0)
(2.9 -1.54233e-14 0)
(2.9 -3.09834e-14 0)
(2.9 4.41855e-15 0)
(2.9 2.98978e-14 0)
(2.9 2.86706e-14 0)
(2.9 1.19593e-14 0)
(2.9 6.41481e-14 0)
(2.9 5.97063e-14 0)
(2.9 1.3115e-13 0)
(2.9 8.85827e-14 0)
(2.9 9.89617e-14 0)
(2.9 1.05076e-13 0)
(2.9 1.52864e-13 0)
(2.9 8.97302e-14 0)
(2.9 6.37136e-14 0)
(2.9 -8.80383e-14 0)
(2.9 -1.21155e-13 0)
(2.9 -3.20751e-14 0)
(2.9 1.07929e-14 0)
(2.9 -4.38395e-14 0)
(2.9 -1.00411e-13 0)
(2.9 -1.02787e-13 0)
(2.9 -9.82261e-14 0)
(2.9 -7.36934e-14 0)
(2.9 -8.7206e-14 0)
(2.9 -2.38709e-14 0)
(2.9 -3.11184e-14 0)
(2.9 4.05121e-14 0)
(2.9 2.44809e-14 0)
(2.9 -2.44481e-14 0)
(2.9 -8.01394e-14 0)
(2.9 -2.85134e-14 0)
(2.9 -2.06584e-14 0)
(2.9 4.44543e-14 0)
(2.9 -6.27508e-14 0)
(2.9 -1.44377e-13 0)
(2.9 1.06852e-15 0)
(2.9 8.66037e-14 0)
(2.9 -1.29644e-14 0)
(2.9 1.16479e-14 0)
(2.9 3.4814e-14 0)
(2.9 1.7565e-14 0)
(2.9 4.78083e-14 0)
(2.9 -4.17398e-14 0)
(2.9 -1.15533e-13 0)
(2.9 1.32206e-14 0)
(2.9 4.38125e-14 0)
(2.9 8.91635e-14 0)
(2.9 6.25651e-14 0)
(2.9 3.98575e-14 0)
(2.9 7.01149e-14 0)
(2.9 4.15138e-14 0)
(2.9 5.16584e-14 0)
(2.9 5.23125e-14 0)
(2.9 -4.3507e-14 0)
(2.9 8.87658e-14 0)
(2.9 1.74395e-13 0)
(2.9 9.91673e-14 0)
(2.9 7.88846e-15 0)
(2.9 8.68276e-14 0)
(2.9 2.61456e-14 0)
(2.9 1.50417e-14 0)
(2.9 5.73756e-14 0)
(2.9 1.16946e-14 0)
(2.9 9.70854e-14 0)
(2.9 -1.01522e-14 0)
(2.9 1.06912e-13 0)
(2.9 1.33506e-13 0)
(2.9 1.6817e-13 0)
(2.9 1.3966e-13 0)
(2.9 1.41335e-13 0)
(2.9 9.84699e-14 0)
(2.9 1.74997e-13 0)
(2.9 1.68753e-13 0)
(2.9 1.04093e-13 0)
(2.9 -4.99056e-14 0)
(2.9 2.34533e-14 0)
(2.9 4.01937e-14 0)
(2.9 4.0003e-14 0)
(2.9 2.99189e-14 0)
(2.9 1.68146e-14 0)
(2.9 -1.03234e-13 0)
(2.9 -9.32982e-14 0)
(2.9 -8.45345e-14 0)
(2.9 -5.01e-14 0)
(2.9 -9.29267e-14 0)
(2.9 -2.22785e-14 0)
(2.9 4.28996e-14 0)
(2.9 1.42266e-15 0)
(2.9 -4.42035e-14 0)
(2.9 -1.20729e-13 0)
(2.9 -2.51704e-14 0)
(2.9 2.06048e-14 0)
(2.9 5.73586e-14 0)
(2.9 -8.08466e-15 0)
(2.9 -7.88774e-14 0)
(2.9 -4.83367e-14 0)
(2.9 5.44874e-14 0)
(2.9 5.1467e-14 0)
(2.9 -1.13908e-14 0)
(2.9 -4.75441e-14 0)
(2.9 -5.64877e-14 0)
(2.9 -3.37249e-14 0)
(2.9 -7.08709e-14 0)
(2.9 -9.43175e-14 0)
(2.9 -2.01904e-15 0)
(2.9 4.01364e-14 0)
(2.9 7.82659e-14 0)
(2.9 -5.17648e-15 0)
(2.9 1.76629e-14 0)
(2.9 3.4168e-14 0)
(2.9 -4.42832e-14 0)
(2.9 5.61868e-14 0)
(2.9 8.6796e-14 0)
(2.9 1.73202e-14 0)
(2.9 9.92886e-14 0)
(2.9 1.42499e-13 0)
(2.9 4.23005e-14 0)
(2.9 -3.93098e-14 0)
(2.9 2.70821e-14 0)
(2.9 -1.73758e-14 0)
(2.9 5.28837e-14 0)
(2.9 3.37883e-14 0)
(2.9 4.02955e-14 0)
(2.9 6.62406e-14 0)
(2.9 1.59779e-14 0)
(2.9 2.28458e-14 0)
(2.9 8.98213e-14 0)
(2.9 7.31013e-14 0)
(2.9 6.78899e-15 0)
(2.9 6.76744e-14 0)
(2.9 -7.24252e-15 0)
(2.9 5.70139e-15 0)
(2.9 1.11947e-13 0)
(2.9 6.13484e-14 0)
(2.9 7.40099e-14 0)
(2.9 1.11305e-13 0)
(2.9 9.49222e-14 0)
(2.9 1.0626e-13 0)
(2.9 8.47476e-14 0)
(2.9 5.76652e-14 0)
(2.9 -5.58218e-14 0)
(2.9 -3.29835e-14 0)
(2.9 -6.23703e-14 0)
(2.9 -3.63491e-14 0)
(2.9 -8.60373e-14 0)
(2.9 7.88805e-15 0)
(2.9 -2.1143e-14 0)
(2.9 -2.05519e-14 0)
(2.9 -1.18258e-13 0)
(2.9 -1.25852e-13 0)
(2.9 -6.57245e-15 0)
(2.9 8.43265e-14 0)
(2.9 6.66087e-14 0)
(2.9 -2.31881e-14 0)
(2.9 -3.91243e-14 0)
(2.9 -7.17311e-14 0)
(2.9 6.78655e-14 0)
(2.9 6.35668e-14 0)
(2.9 -4.67627e-14 0)
(2.9 -1.40348e-13 0)
(2.9 -7.90605e-14 0)
(2.9 -9.04662e-14 0)
(2.9 -8.40547e-14 0)
(2.9 -5.93539e-14 0)
(2.9 2.1419e-14 0)
(2.9 1.42948e-14 0)
(2.9 2.08294e-14 0)
(2.9 -5.36693e-14 0)
(2.9 1.14436e-14 0)
(2.9 5.59168e-14 0)
(2.9 -4.93353e-14 0)
(2.9 2.44287e-14 0)
(2.9 1.36407e-13 0)
(2.9 6.25731e-14 0)
(2.9 5.46776e-14 0)
(2.9 9.42278e-15 0)
(2.9 3.38539e-14 0)
(2.9 -2.59986e-14 0)
(2.9 5.06379e-15 0)
(2.9 -3.34177e-14 0)
(2.9 2.04788e-14 0)
(2.9 3.01893e-14 0)
(2.9 8.66292e-14 0)
(2.9 1.50341e-14 0)
(2.9 4.56454e-14 0)
(2.9 -3.9932e-14 0)
(2.9 -2.96067e-14 0)
(2.9 -1.06026e-14 0)
(2.9 -8.19505e-14 0)
(2.9 -1.63224e-14 0)
(2.9 -6.70614e-14 0)
(2.9 -7.00051e-14 0)
(2.9 -9.769e-15 0)
(2.9 -7.19022e-14 0)
(2.9 -8.4014e-15 0)
(2.9 1.24783e-13 0)
(2.9 5.58719e-14 0)
(2.9 5.91924e-14 0)
(2.9 2.61104e-14 0)
(2.9 7.50867e-14 0)
(2.9 6.31987e-14 0)
(2.9 2.61046e-14 0)
(2.9 5.40065e-16 0)
(2.9 9.61647e-15 0)
(2.9 -8.14371e-14 0)
(2.9 -3.88939e-14 0)
(2.9 -9.27516e-14 0)
(2.9 -3.39601e-14 0)
(2.9 -1.25749e-13 0)
(2.9 -9.46709e-14 0)
(2.9 -5.44567e-15 0)
(2.9 8.11798e-14 0)
(2.9 2.17871e-14 0)
(2.9 -6.74265e-14 0)
(2.9 -5.34445e-14 0)
(2.9 -3.94642e-14 0)
(2.9 4.68238e-14 0)
(2.9 -2.46185e-14 0)
(2.9 -9.39661e-14 0)
(2.9 -2.02588e-13 0)
(2.9 -7.82299e-14 0)
(2.9 -5.13845e-14 0)
(2.9 -9.32932e-14 0)
(2.9 -5.22799e-14 0)
(2.9 4.03513e-14 0)
(2.9 -4.69977e-14 0)
(2.9 -4.30777e-14 0)
(2.9 -5.50877e-14 0)
(2.9 2.53466e-14 0)
(2.9 3.69094e-14 0)
(2.9 -4.40557e-15 0)
(2.9 1.7021e-14 0)
(2.9 6.6939e-14 0)
(2.9 2.38252e-14 0)
(2.9 -1.60358e-14 0)
(2.9 -7.8326e-14 0)
(2.9 1.53014e-14 0)
(2.9 9.28467e-14 0)
(2.9 7.24185e-14 0)
(2.9 1.24739e-14 0)
(2.9 -4.41788e-14 0)
(2.9 -1.72962e-14 0)
(2.9 6.77141e-14 0)
(2.9 2.3563e-14 0)
(2.9 6.56574e-14 0)
(2.9 -2.11122e-14 0)
(2.9 1.33287e-14 0)
(2.9 -2.37896e-14 0)
(2.9 -1.2164e-13 0)
(2.9 -6.7186e-14 0)
(2.9 -7.32674e-14 0)
(2.9 -9.09348e-14 0)
(2.9 -8.28494e-14 0)
(2.9 -1.89066e-13 0)
(2.9 -1.03131e-13 0)
(2.9 1.05185e-14 0)
(2.9 5.13844e-14 0)
(2.9 2.81039e-14 0)
(2.9 -1.18885e-14 0)
(2.9 8.82332e-14 0)
(2.9 1.03222e-13 0)
(2.9 2.49875e-14 0)
(2.9 6.87709e-14 0)
(2.9 -4.45675e-14 0)
(2.9 -5.11129e-14 0)
(2.9 -8.2296e-14 0)
(2.9 -6.27522e-14 0)
(2.9 -2.44237e-14 0)
(2.9 -8.73822e-14 0)
(2.9 -1.18594e-13 0)
(2.9 -6.41293e-14 0)
(2.9 -5.8086e-14 0)
(2.9 -4.46683e-14 0)
(2.9 -3.15893e-14 0)
(2.9 -6.30035e-14 0)
(2.9 -5.41302e-14 0)
(2.9 -3.90485e-14 0)
(2.9 -1.12442e-15 0)
(2.9 -3.26595e-14 0)
(2.9 -1.46742e-13 0)
(2.9 -1.53464e-13 0)
(2.9 -9.44301e-14 0)
(2.9 -3.94039e-14 0)
(2.9 7.15573e-15 0)
(2.9 1.47156e-14 0)
(2.9 -8.43851e-14 0)
(2.9 -7.13752e-14 0)
(2.9 -3.86987e-14 0)
(2.9 -3.81468e-14 0)
(2.9 -9.45184e-14 0)
(2.9 -1.02846e-13 0)
(2.9 -6.38269e-14 0)
(2.9 -3.0983e-14 0)
(2.9 -4.54404e-14 0)
(2.9 -8.03898e-14 0)
(2.9 -4.51312e-14 0)
(2.9 7.41542e-16 0)
(2.9 1.03855e-13 0)
(2.9 2.50006e-14 0)
(2.9 1.12264e-14 0)