/*--------------------------------*- C++ -*----------------------------------*\
| =========                 |                                                 |
| \\      /  F ield         | OpenFOAM: The Open Source CFD Toolbox           |
|  \\    /   O peration     | Version:  2412                                  |
|   \\  /    A nd           | Website:  www.openfoam.com                      |
|    \\/     M anipulation  |                                                 |
\*---------------------------------------------------------------------------*/
FoamFile
{
    version     2.0;
    format      ascii;
    arch        "LSB;label=32;scalar=64";
    class       volScalarField;
    location    "0.0391974";
    object      rho;
}
// * * * * * * * * * * * * * * * * * * * * * * * * * * * * * * * * * * * * * //

dimensions      [1 -3 0 0 0 0 0];

internalField   nonuniform List<scalar> 
100
(
0.257584
0.257677
0.257767
0.25782
0.257806
0.257683
0.257482
0.257254
0.256981
0.256713
0.25654
0.256475
0.2565
0.256587
0.256676
0.256751
0.256809
0.256846
0.256852
0.256832
0.256789
0.256711
0.256586
0.256428
0.256116
0.255472
0.257296
0.355573
0.608437
0.645652
0.638356
0.639542
0.645001
0.642883
0.631314
0.632511
0.638365
0.650243
0.670885
0.684432
0.692074
0.698664
0.695342
0.676004
0.668177
0.673495
0.681695
0.698138
0.714149
0.724491
0.73325
0.741079
0.741395
0.739794
0.746539
0.756061
0.76732
0.775404
0.7761
0.770601
0.77342
0.782312
0.795405
0.808361
0.815194
0.81377
0.808336
0.811827
0.822221
0.843128
0.865389
0.871398
0.872117
0.860967
0.847559
0.852148
0.859769
0.876476
0.89126
0.903297
0.91176
0.915567
0.923559
0.932428
0.942552
0.948971
0.949213
0.949143
0.94558
0.925408
0.887673
0.850492
0.82485
0.809882
0.807585
0.822056
0.845795
0.878347
0.906769
0.929936
)
;

boundaryField
{
    sides
    {
        type            calculated;
        value           nonuniform List<scalar> 2(0.929936 0.257584);
    }
    empty
    {
        type            empty;
    }
}


// ************************************************************************* //
