/*--------------------------------*- C++ -*----------------------------------*\
| =========                 |                                                 |
| \\      /  F ield         | OpenFOAM: The Open Source CFD Toolbox           |
|  \\    /   O peration     | Version:  2412                                  |
|   \\  /    A nd           | Website:  www.openfoam.com                      |
|    \\/     M anipulation  |                                                 |
\*---------------------------------------------------------------------------*/
FoamFile
{
    version     2.0;
    format      ascii;
    arch        "LSB;label=32;scalar=64";
    class       surfaceScalarField;
    location    "0.0303097";
    object      phiRhoY_Y_N2;
}
// * * * * * * * * * * * * * * * * * * * * * * * * * * * * * * * * * * * * * //

dimensions      [1 0 -1 0 0 0 0];

internalField   nonuniform List<scalar> 
99
(
6.62983
13.2828
19.9623
26.6503
33.3368
40.0149
46.6906
53.3558
59.9998
66.6411
73.2511
79.8522
86.4441
93.0434
99.6862
106.327
112.975
119.605
126.23
132.844
139.441
146.031
152.6
159.159
165.696
172.22
178.717
185.197
191.656
198.094
204.504
210.883
217.236
223.568
229.875
236.154
242.424
248.658
254.778
260.848
267.024
273.229
279.177
284.963
290.967
296.954
302.081
306.328
311.186
317.191
322.751
327.515
333.299
341.023
348.417
326.49
-97.9924
-231.897
-216.54
-195.221
-188.766
-150.929
-123.057
-116.258
-105.346
-91.6957
-64.221
-24.1132
15.5191
39.9437
44.9165
32.4351
17.4343
6.55987
-7.37298
-20.5182
-24.0709
-21.473
-2.96231
14.9008
17.622
17.4073
10.2835
-1.92853
-4.93328
-2.8902
3.16384
5.54806
-2.27465
-5.75876
-3.07093
-0.572482
0.0308441
0.0336602
0.00549435
0.000366105
5.18217e-06
-1.72352e-07
0
)
;

boundaryField
{
    sides
    {
        type            calculated;
        value           uniform 0;
    }
    empty
    {
        type            empty;
    }
}


// ************************************************************************* //
