/*--------------------------------*- C++ -*----------------------------------*\
| =========                 |                                                 |
| \\      /  F ield         | OpenFOAM: The Open Source CFD Toolbox           |
|  \\    /   O peration     | Version:  2412                                  |
|   \\  /    A nd           | Website:  www.openfoam.com                      |
|    \\/     M anipulation  |                                                 |
\*---------------------------------------------------------------------------*/
FoamFile
{
    version     2.0;
    format      ascii;
    arch        "LSB;label=32;scalar=64";
    class       volScalarField;
    location    "0.0439444";
    object      p;
}
// * * * * * * * * * * * * * * * * * * * * * * * * * * * * * * * * * * * * * //

dimensions      [1 -1 -2 0 0 0 0];

internalField   nonuniform List<scalar> 
100
(
13122
13127.5
13134.5
13145.3
13156.3
13154.3
13136.8
13311.7
20478.4
38083.4
40491.9
39222.1
38298.7
39449.3
41890.6
43660.7
43865.5
44453.8
44510.9
43224
40810.6
40565.6
40908.9
41540.3
43104.8
45515.5
46501.9
47054.2
47389.7
46927.7
46354
46620.2
47137.1
48302.2
49275.7
49829.3
49822.8
48908.7
48779.2
49279.5
50415.4
51918.2
52673.7
52992.5
52149.4
51415.1
51733.5
52506.2
54923.2
57026.2
57856
58242.6
56801
54829.1
54392.8
54943
55817
57664
59424.7
60300.4
61127.9
61381
61547.1
61775.6
62480.3
62622.9
62644.4
62957.6
63444
64971.3
65167.7
67116.6
65917.7
66771.1
66035.9
67326.9
70235.8
73529.4
76770.7
75986.4
77509.2
73087.4
70251.5
67140.1
66782.8
66827.4
66683.3
67322.1
67491.5
69002.6
69097
69880.7
69493.7
70151.8
69166.9
69496.6
68729.3
69117
69285.9
69158.3
)
;

boundaryField
{
    sides
    {
        type            zeroGradient;
    }
    empty
    {
        type            empty;
    }
}


// ************************************************************************* //
