/*--------------------------------*- C++ -*----------------------------------*\
| =========                 |                                                 |
| \\      /  F ield         | OpenFOAM: The Open Source CFD Toolbox           |
|  \\    /   O peration     | Version:  2412                                  |
|   \\  /    A nd           | Website:  www.openfoam.com                      |
|    \\/     M anipulation  |                                                 |
\*---------------------------------------------------------------------------*/
FoamFile
{
    version     2.0;
    format      ascii;
    arch        "LSB;label=32;scalar=64";
    class       volScalarField;
    location    "0.0439444";
    object      rhoY_Y_N2;
}
// * * * * * * * * * * * * * * * * * * * * * * * * * * * * * * * * * * * * * //

dimensions      [1 -3 0 0 0 0 0];

internalField   nonuniform List<scalar> 
100
(
0.221056
0.221148
0.221267
0.221448
0.221634
0.2216
0.221305
0.224252
0.332409
0.527399
0.54265
0.518125
0.51333
0.520913
0.551023
0.565522
0.570518
0.575121
0.577853
0.562763
0.539059
0.53644
0.540871
0.546157
0.562697
0.586539
0.595523
0.600459
0.603525
0.598032
0.59251
0.595453
0.600858
0.612821
0.622777
0.628564
0.628293
0.6191
0.618442
0.623694
0.635393
0.650659
0.65822
0.661623
0.653088
0.647092
0.650988
0.659327
0.684241
0.964735
0.769115
0.766363
0.743414
0.718961
0.712564
0.715849
0.722583
0.739847
0.755308
0.763092
0.769518
0.771536
0.770644
0.773646
0.778534
0.781627
0.780116
0.782394
0.787427
0.79647
0.805542
0.812505
0.812973
0.806835
0.810303
0.815625
0.841066
0.879735
0.895362
0.907226
0.907617
0.886056
0.850772
0.826455
0.785698
0.687987
0.5002
0.24009
0.0293978
0.0109109
-0.00500703
-0.00102434
0.000370346
-0.000143602
6.43612e-07
-2.87616e-06
-1.28953e-07
-4.33778e-08
-4.00737e-09
-2.01132e-10
)
;

boundaryField
{
    sides
    {
        type            calculated;
        value           nonuniform List<scalar> 2(0 1.12308);
    }
    empty
    {
        type            empty;
    }
}


// ************************************************************************* //
