/*--------------------------------*- C++ -*----------------------------------*\
| =========                 |                                                 |
| \\      /  F ield         | OpenFOAM: The Open Source CFD Toolbox           |
|  \\    /   O peration     | Version:  2412                                  |
|   \\  /    A nd           | Website:  www.openfoam.com                      |
|    \\/     M anipulation  |                                                 |
\*---------------------------------------------------------------------------*/
FoamFile
{
    version     2.0;
    format      ascii;
    arch        "LSB;label=32;scalar=64";
    class       volVectorField;
    location    "0.0439444";
    object      U;
}
// * * * * * * * * * * * * * * * * * * * * * * * * * * * * * * * * * * * * * //

dimensions      [0 1 -1 0 0 0 0];

internalField   nonuniform List<vector> 
100
(
(1.5146 0 0)
(4.45521 0 0)
(7.45709 0 0)
(10.4569 0 0)
(13.4879 0 0)
(16.7216 0 0)
(20.239 0 0)
(20.4239 0 0)
(-94.7096 0 0)
(-222.469 0 0)
(-235.388 0 0)
(-220.993 0 0)
(-214.431 0 0)
(-215.475 0 0)
(-228.08 0 0)
(-232.617 0 0)
(-230.85 0 0)
(-228.993 0 0)
(-225.955 0 0)
(-214.222 0 0)
(-196.828 0 0)
(-190.734 0 0)
(-188.764 0 0)
(-188.217 0 0)
(-193.216 0 0)
(-201.88 0 0)
(-203.037 0 0)
(-201.481 0 0)
(-198.822 0 0)
(-192.427 0 0)
(-185.49 0 0)
(-182.61 0 0)
(-181.837 0 0)
(-183.703 0 0)
(-184.573 0 0)
(-183.049 0 0)
(-178.468 0 0)
(-170.198 0 0)
(-165.366 0 0)
(-163.851 0 0)
(-165.835 0 0)
(-169.038 0 0)
(-168.596 0 0)
(-165.575 0 0)
(-157.907 0 0)
(-150.391 0 0)
(-147.38 0 0)
(-147.713 0 0)
(-154.646 0 0)
(-159.867 0 0)
(-159.455 0 0)
(-156.335 0 0)
(-146.464 0 0)
(-133.37 0 0)
(-127.414 0 0)
(-125.396 0 0)
(-125.724 0 0)
(-129.718 0 0)
(-132.895 0 0)
(-132.805 0 0)
(-131.398 0 0)
(-128.535 0 0)
(-124.676 0 0)
(-121.907 0 0)
(-120.015 0 0)
(-116.82 0 0)
(-112.806 0 0)
(-109.115 0 0)
(-108.385 0 0)
(-107.619 0 0)
(-107.971 0 0)
(-106.447 0 0)
(-102.759 0 0)
(-97.7479 0 0)
(-93.4173 0 0)
(-94.1715 0 0)
(-98.7944 0 0)
(-109.315 0 0)
(-111.824 0 0)
(-109.933 0 0)
(-104.977 0 0)
(-91.4509 0 0)
(-73.1467 0 0)
(-59.6748 0 0)
(-54.2887 0 0)
(-49.4119 0 0)
(-46.164 0 0)
(-43.2284 0 0)
(-41.5524 0 0)
(-39.7556 0 0)
(-37.6466 0 0)
(-35.1407 0 0)
(-31.8383 0 0)
(-26.8991 0 0)
(-21.4783 0 0)
(-15.9398 0 0)
(-9.77687 0 0)
(-5.39079 0 0)
(-1.66263 0 0)
(-0.498663 0 0)
)
;

boundaryField
{
    sides
    {
        type            fixedValue;
        value           uniform (0 0 0);
    }
    empty
    {
        type            empty;
    }
}


// ************************************************************************* //
