/*--------------------------------*- C++ -*----------------------------------*\
| =========                 |                                                 |
| \\      /  F ield         | OpenFOAM: The Open Source CFD Toolbox           |
|  \\    /   O peration     | Version:  2412                                  |
|   \\  /    A nd           | Website:  www.openfoam.com                      |
|    \\/     M anipulation  |                                                 |
\*---------------------------------------------------------------------------*/
FoamFile
{
    version     2.0;
    format      ascii;
    arch        "LSB;label=32;scalar=64";
    class       volScalarField;
    location    "0.0452787";
    object      rhoY_Y_N2;
}
// * * * * * * * * * * * * * * * * * * * * * * * * * * * * * * * * * * * * * //

dimensions      [1 -3 0 0 0 0 0];

internalField   nonuniform List<scalar> 
100
(
0.212277
0.213151
0.260047
0.464364
0.514603
0.507288
0.504966
0.522247
0.54019
0.544293
0.547626
0.547793
0.530559
0.508045
0.506131
0.509877
0.514563
0.530227
0.556971
0.566866
0.571251
0.574051
0.567907
0.560274
0.562244
0.566798
0.577194
0.588442
0.594224
0.596891
0.588637
0.583676
0.587157
0.594239
0.610613
0.621029
0.626346
0.624745
0.613065
0.610968
0.615799
0.628484
0.656902
0.671559
0.677932
0.677869
0.657871
0.641783
0.641461
0.906763
0.712135
0.726349
0.734467
0.737244
0.740467
0.740237
0.7379
0.740046
0.74354
0.743889
0.741198
0.742779
0.748433
0.757758
0.767737
0.774537
0.775128
0.768918
0.767819
0.774396
0.793451
0.832686
0.853311
0.860132
0.862023
0.843483
0.80541
0.780054
0.7748
0.774706
0.777905
0.783835
0.783991
0.770486
0.702394
0.558835
0.339747
0.103805
-0.0204352
0.00843137
-0.00741008
-0.000948027
0.000357772
-0.000207254
6.25373e-07
-2.94854e-06
-1.28953e-07
-4.33778e-08
-4.00737e-09
-2.01132e-10
)
;

boundaryField
{
    sides
    {
        type            calculated;
        value           nonuniform List<scalar> 2(0 1.12308);
    }
    empty
    {
        type            empty;
    }
}


// ************************************************************************* //
