/*--------------------------------*- C++ -*----------------------------------*\
| =========                 |                                                 |
| \\      /  F ield         | OpenFOAM: The Open Source CFD Toolbox           |
|  \\    /   O peration     | Version:  2412                                  |
|   \\  /    A nd           | Website:  www.openfoam.com                      |
|    \\/     M anipulation  |                                                 |
\*---------------------------------------------------------------------------*/
FoamFile
{
    version     2.0;
    format      ascii;
    arch        "LSB;label=32;scalar=64";
    class       volScalarField;
    location    "0.0324416";
    object      rhoY_Y_N2;
}
// * * * * * * * * * * * * * * * * * * * * * * * * * * * * * * * * * * * * * //

dimensions      [1 -3 0 0 0 0 0];

internalField   nonuniform List<scalar> 
100
(
0.331807
0.331822
0.331842
0.33191
0.331899
0.331971
0.331911
0.331942
0.331896
0.331746
0.331725
0.331389
0.33143
0.331149
0.331107
0.330944
0.330755
0.330652
0.330328
0.330216
0.32985
0.329705
0.329371
0.329212
0.328918
0.328731
0.328458
0.328236
0.327959
0.327702
0.327425
0.327165
0.326904
0.326634
0.326349
0.326068
0.325816
0.325594
0.325379
0.325351
0.325396
0.325295
0.325276
0.325747
0.327006
0.328976
0.330938
0.3329
0.335526
0.608264
0.644368
0.896593
0.905293
0.875988
0.871354
0.874747
0.874301
0.875404
0.886513
0.902215
0.91697
0.931304
0.936239
0.938606
0.942401
0.945573
0.954518
0.965738
0.993799
1.00533
1.00087
0.998188
0.986547
0.996419
1.02304
1.0756
1.11347
1.12329
1.12125
1.10304
1.08816
1.08181
1.08378
1.08691
1.08534
1.08463
1.0901
1.15959
0.993738
0.618325
0.260766
0.0769406
0.0170091
0.00295851
0.000402756
3.88136e-05
2.34016e-06
5.13493e-08
-1.87582e-09
-1.43979e-10
)
;

boundaryField
{
    sides
    {
        type            calculated;
        value           nonuniform List<scalar> 2(0 1.12308);
    }
    empty
    {
        type            empty;
    }
}


// ************************************************************************* //
