/*--------------------------------*- C++ -*----------------------------------*\
| =========                 |                                                 |
| \\      /  F ield         | OpenFOAM: The Open Source CFD Toolbox           |
|  \\    /   O peration     | Version:  2412                                  |
|   \\  /    A nd           | Website:  www.openfoam.com                      |
|    \\/     M anipulation  |                                                 |
\*---------------------------------------------------------------------------*/
FoamFile
{
    version     2.0;
    format      ascii;
    arch        "LSB;label=32;scalar=64";
    class       volScalarField;
    location    "0.0456936";
    object      p;
}
// * * * * * * * * * * * * * * * * * * * * * * * * * * * * * * * * * * * * * //

dimensions      [1 -1 -2 0 0 0 0];

internalField   nonuniform List<scalar> 
100
(
13853.8
27763.7
36729.2
37412.2
37291.5
38808.2
40121.3
40952.4
40963
41183
38545.2
37239.7
36695.5
37452.4
37478.3
39711
41712.8
42909.9
43008.9
43511.8
42541
42152.3
42276.6
42900.9
43916.9
45044.3
45509.5
45773.7
44851
44427.2
44764.7
45511
47109.7
48093.1
48549.1
48352.6
47152
46884.1
47338.1
48591.5
51403.7
52863.6
53424.4
53344.4
51308.3
49555.6
49434.5
49929.8
50813.8
52818.2
54594.5
55404.1
55976.3
56189.7
56111.2
56429.2
56877.3
57084.6
56940
57135
57805.4
58653.7
59830.8
60471.7
60952.4
60305
60267.8
60789.3
62434.4
66764
69165.5
70790.9
70452.3
69939.2
65046.4
62892.6
61019.2
60528.7
61327.8
60559.9
61948.6
61072.9
62906.6
62836.3
64017.5
63742.6
63674.6
63586
63215.4
63200.6
62575.4
63094.4
62781.9
63759.7
63524.4
64304.8
63724.3
64010.6
63701.4
63669.5
)
;

boundaryField
{
    sides
    {
        type            zeroGradient;
    }
    empty
    {
        type            empty;
    }
}


// ************************************************************************* //
