/*--------------------------------*- C++ -*----------------------------------*\
| =========                 |                                                 |
| \\      /  F ield         | OpenFOAM: The Open Source CFD Toolbox           |
|  \\    /   O peration     | Version:  2412                                  |
|   \\  /    A nd           | Website:  www.openfoam.com                      |
|    \\/     M anipulation  |                                                 |
\*---------------------------------------------------------------------------*/
FoamFile
{
    version     2.0;
    format      ascii;
    arch        "LSB;label=32;scalar=64";
    class       volScalarField;
    location    "0.0456936";
    object      TTR;
}
// * * * * * * * * * * * * * * * * * * * * * * * * * * * * * * * * * * * * * //

dimensions      [0 0 0 1 0 0 0];

internalField   nonuniform List<scalar> 
100
(
200
223.168
243.41
249.16
249.443
252.504
253.504
256.542
255.098
257.584
252.29
252.35
248.434
251.662
249.149
254.175
254.656
258.353
256.955
259.197
257.189
257.748
257.276
258.959
259.799
261.821
262.109
262.831
261.717
260.975
261.144
262.023
263.664
264.914
265.335
265.254
263.855
263.2
263.614
264.857
267.729
269.426
269.838
269.549
267.372
264.916
264.377
264.837
265.93
268.044
270.181
271.135
271.529
271.62
271.308
271.486
271.812
272.069
272.051
272.222
273.242
273.888
275.285
275.238
276.156
275.28
275.93
276.275
278.032
282.17
283.931
287.396
284.827
288.042
279.967
281.443
276.357
276.033
277.468
271.897
276.878
270.7
277.705
276.927
287.253
299.187
320.109
347.279
365.983
377.678
381.46
387.11
385.267
389.644
385.723
389.04
384.926
386.491
384.633
384.747
)
;

boundaryField
{
    sides
    {
        type            zeroGradient;
    }
    empty
    {
        type            empty;
    }
}


// ************************************************************************* //
