/*--------------------------------*- C++ -*----------------------------------*\
| =========                 |                                                 |
| \\      /  F ield         | OpenFOAM: The Open Source CFD Toolbox           |
|  \\    /   O peration     | Version:  2412                                  |
|   \\  /    A nd           | Website:  www.openfoam.com                      |
|    \\/     M anipulation  |                                                 |
\*---------------------------------------------------------------------------*/
FoamFile
{
    version     2.0;
    format      ascii;
    arch        "LSB;label=32;scalar=64";
    class       volVectorField;
    location    "9.38639e-05";
    object      U;
}
// * * * * * * * * * * * * * * * * * * * * * * * * * * * * * * * * * * * * * //

dimensions      [0 1 -1 0 0 0 0];

internalField   nonuniform List<vector> 
1800
(
(2.9 -5.35958e-14 0)
(2.9 1.40796e-14 0)
(2.9 5.46229e-14 0)
(2.9 -5.44529e-14 0)
(2.9 -2.87468e-14 0)
(2.9 -1.06764e-13 0)
(2.9 -1.04245e-13 0)
(2.9 -7.48641e-14 0)
(2.9 -3.94948e-14 0)
(2.9 -1.82665e-14 0)
(2.9 -1.08914e-14 0)
(2.9 -6.23252e-14 0)
(2.9 -8.50542e-14 0)
(2.9 -5.83844e-14 0)
(2.9 -7.04074e-14 0)
(2.9 -3.93596e-14 0)
(2.9 -1.25665e-14 0)
(2.9 -2.69985e-14 0)
(2.9 -3.25527e-14 0)
(2.9 -3.63493e-14 0)
(2.9 -3.25798e-14 0)
(2.9 -2.57007e-14 0)
(2.9 4.73423e-15 0)
(2.9 1.51546e-14 0)
(2.9 -2.32132e-14 0)
(2.9 -8.25899e-14 0)
(2.9 -7.12598e-14 0)
(2.9 -3.6878e-14 0)
(2.9 3.69646e-14 0)
(2.9 6.23628e-14 0)
(2.9 -2.68731e-14 0)
(2.9 -4.90541e-15 0)
(2.9 -6.64865e-14 0)
(2.9 -5.4943e-14 0)
(2.9 -8.57754e-15 0)
(2.9 1.59418e-14 0)
(2.9 1.00964e-15 0)
(2.9 1.51081e-14 0)
(2.9 9.82075e-15 0)
(2.9 -2.23524e-14 0)
(2.9 -2.5151e-15 0)
(2.9 3.48293e-14 0)
(2.9 5.40702e-15 0)
(2.9 2.05483e-14 0)
(2.9 -2.6051e-14 0)
(2.9 -4.26865e-14 0)
(2.9 6.04967e-15 0)
(2.9 6.9037e-14 0)
(2.9 4.03302e-14 0)
(2.9 6.29117e-14 0)
(2.9 5.05004e-14 0)
(2.9 -2.56775e-14 0)
(2.9 -1.36678e-14 0)
(2.9 -2.95763e-14 0)
(2.9 2.50213e-14 0)
(2.9 2.53615e-14 0)
(2.9 -3.73362e-14 0)
(2.9 -2.38669e-14 0)
(2.9 -5.65797e-14 0)
(2.9 -1.05194e-13 0)
(2.9 -1.22866e-13 0)
(2.9 -6.05156e-15 0)
(2.9 4.23807e-14 0)
(2.9 -4.19863e-14 0)
(2.9 -4.99639e-14 0)
(2.9 -1.97717e-13 0)
(2.9 -1.86534e-13 0)
(2.9 -1.38499e-13 0)
(2.9 -6.40919e-14 0)
(2.9 -2.36606e-14 0)
(2.9 1.708e-15 0)
(2.9 -1.21001e-13 0)
(2.9 -1.9234e-13 0)
(2.9 -1.48119e-13 0)
(2.9 -5.13272e-14 0)
(2.9 -6.76182e-15 0)
(2.9 -1.21763e-14 0)
(2.9 -8.58208e-14 0)
(2.9 -9.66292e-14 0)
(2.9 -7.98426e-14 0)
(2.9 -9.32892e-14 0)
(2.9 -1.30909e-14 0)
(2.9 6.7654e-14 0)
(2.9 2.57944e-14 0)
(2.9 -7.32657e-14 0)
(2.9 -1.86431e-13 0)
(2.9 -1.28865e-13 0)
(2.9 -1.0623e-13 0)
(2.9 8.04957e-15 0)
(2.9 5.64831e-14 0)
(2.9 -7.80053e-14 0)
(2.9 -1.74025e-14 0)
(2.9 -1.48316e-13 0)
(2.9 -1.00137e-13 0)
(2.9 -6.22737e-14 0)
(2.9 -2.15041e-14 0)
(2.9 -4.9697e-15 0)
(2.9 4.8089e-14 0)
(2.9 -1.30852e-14 0)
(2.9 -8.40905e-14 0)
(2.9 -4.81525e-15 0)
(2.9 4.72457e-14 0)
(2.9 5.71799e-15 0)
(2.9 1.18932e-14 0)
(2.9 -8.26576e-14 0)
(2.9 -1.28099e-13 0)
(2.9 1.58907e-14 0)
(2.9 7.4843e-14 0)
(2.9 1.25022e-13 0)
(2.9 1.41871e-13 0)
(2.9 3.50303e-14 0)
(2.9 -8.04558e-14 0)
(2.9 -6.58227e-14 0)
(2.9 -9.87346e-14 0)
(2.9 3.08777e-14 0)
(2.9 6.65045e-14 0)
(2.9 -3.3495e-14 0)
(2.9 -5.38319e-14 0)
(2.9 -1.25086e-13 0)
(2.9 -1.98205e-13 0)
(2.9 -6.91465e-14 0)
(2.9 -2.49357e-14 0)
(2.9 -2.0793e-15 0)
(2.9 -1.12126e-14 0)
(2.9 -1.78653e-14 0)
(2.9 -1.38907e-13 0)
(2.9 -1.76356e-13 0)
(2.9 -7.83161e-14 0)
(2.9 4.01937e-16 0)
(2.9 -7.40227e-14 0)
(2.9 -1.19298e-13 0)
(2.9 -1.37155e-13 0)
(2.9 -1.30648e-13 0)
(2.9 -1.07987e-13 0)
(2.9 -6.33149e-14 0)
(2.9 6.72026e-14 0)
(2.9 -4.2704e-15 0)
(2.9 -6.71612e-14 0)
(2.9 -3.06554e-14 0)
(2.9 -5.37471e-14 0)
(2.9 -1.62314e-14 0)
(2.9 2.83241e-14 0)
(2.9 1.33672e-13 0)
(2.9 6.01299e-14 0)
(2.9 -7.37355e-14 0)
(2.9 -2.00481e-13 0)
(2.9 -9.44121e-14 0)
(2.9 -4.43468e-14 0)
(2.9 -3.18966e-14 0)
(2.9 -3.67877e-14 0)
(2.9 -5.17661e-14 0)
(2.9 -8.54024e-14 0)
(2.9 -1.32163e-13 0)
(2.9 -1.62511e-13 0)
(2.9 -7.08019e-14 0)
(2.9 -5.80695e-14 0)
(2.9 1.54537e-14 0)
(2.9 3.23094e-14 0)
(2.9 -1.00414e-13 0)
(2.9 -1.48126e-13 0)
(2.9 -3.43103e-14 0)
(2.9 -3.7026e-15 0)
(2.9 3.2336e-14 0)
(2.9 -1.37375e-14 0)
(2.9 -7.01076e-14 0)
(2.9 -7.75534e-14 0)
(2.9 -2.69893e-14 0)
(2.9 3.57182e-14 0)
(2.9 1.93384e-14 0)
(2.9 2.33444e-15 0)
(2.9 -2.99988e-14 0)
(2.9 -4.60593e-14 0)
(2.9 -5.39025e-14 0)
(2.9 -9.0436e-14 0)
(2.9 -1.37895e-14 0)
(2.9 -1.04429e-14 0)
(2.9 -4.35068e-14 0)
(2.9 -5.1244e-14 0)
(2.9 -1.02992e-13 0)
(2.9 -1.45961e-13 0)
(2.9 -3.44062e-16 0)
(2.9 -7.32376e-14 0)
(2.9 -1.53918e-14 0)
(2.9 -7.12525e-14 0)
(2.9 -4.36096e-14 0)
(2.9 -7.00705e-14 0)
(2.9 -1.1325e-13 0)
(2.9 -6.98594e-14 0)
(2.9 -2.58687e-14 0)
(2.9 -1.27835e-13 0)
(2.9 -1.53409e-13 0)
(2.9 -1.59097e-13 0)
(2.9 -7.94677e-14 0)
(2.9 -1.07755e-13 0)
(2.9 -1.26293e-13 0)
(2.9 -3.1827e-14 0)
(2.9 -5.36808e-14 0)
(2.9 -2.96088e-14 0)
(2.9 2.84546e-14 0)
(2.9 7.71944e-15 0)
(2.9 7.52906e-14 0)
(2.9 7.86273e-14 0)
(2.9 5.04426e-15 0)
(2.9 -1.06953e-14 0)
(2.9 -4.10763e-14 0)
(2.9 -1.09785e-13 0)
(2.9 -3.31731e-14 0)
(2.9 -1.0274e-14 0)
(2.9 4.27487e-15 0)
(2.9 -9.28082e-15 0)
(2.9 -1.70022e-14 0)
(2.9 -2.38303e-14 0)
(2.9 -8.93811e-14 0)
(2.9 -8.26635e-14 0)
(2.9 -7.63921e-14 0)
(2.9 4.32446e-15 0)
(2.9 4.28839e-14 0)
(2.9 7.67335e-18 0)
(2.9 -7.70029e-14 0)
(2.9 -1.32106e-13 0)
(2.9 -6.05889e-14 0)
(2.9 -5.95427e-14 0)
(2.9 -4.38313e-14 0)
(2.9 -4.28363e-14 0)
(2.9 -5.8296e-14 0)
(2.9 -8.91129e-14 0)
(2.9 -2.40961e-14 0)
(2.9 4.68305e-14 0)
(2.9 -5.41488e-14 0)
(2.9 -1.00948e-13 0)
(2.9 -9.23201e-14 0)
(2.9 3.03255e-14 0)
(2.9 -2.42013e-14 0)
(2.9 -2.92109e-14 0)
(2.9 -3.80395e-14 0)
(2.9 -4.82866e-14 0)
(2.9 -1.2121e-14 0)
(2.9 -5.58725e-14 0)
(2.9 -1.91459e-14 0)
(2.9 -1.63374e-14 0)
(2.9 -3.83526e-14 0)
(2.9 -1.52398e-13 0)
(2.9 -6.67354e-14 0)
(2.9 -1.07311e-13 0)
(2.9 -5.09143e-14 0)
(2.9 -3.78921e-14 0)
(2.9 -6.98911e-14 0)
(2.9 -6.25576e-14 0)
(2.9 -3.03516e-14 0)
(2.9 -1.11171e-13 0)
(2.9 -1.37698e-13 0)
(2.9 -1.5392e-13 0)
(2.9 -4.88331e-14 0)
(2.9 -1.19586e-14 0)
(2.9 -6.33785e-14 0)
(2.9 -1.66514e-13 0)
(2.9 -1.0248e-13 0)
(2.9 -2.3018e-14 0)
(2.9 7.88723e-14 0)
(2.9 5.10413e-14 0)
(2.9 6.40774e-14 0)
(2.9 2.99745e-14 0)
(2.9 -1.16507e-13 0)
(2.9 -9.58743e-14 0)
(2.9 -6.14778e-14 0)
(2.9 -5.3803e-14 0)
(2.9 2.28793e-14 0)
(2.9 -5.87371e-14 0)
(2.9 4.33589e-14 0)
(2.9 6.66642e-15 0)
(2.9 -1.06367e-14 0)
(2.9 5.63076e-14 0)
(2.9 -4.96313e-15 0)
(2.9 1.44787e-14 0)
(2.9 -5.42405e-14 0)
(2.9 -6.73784e-15 0)
(2.9 2.96019e-14 0)
(2.9 -4.00551e-14 0)
(2.9 -6.08213e-14 0)
(2.9 -7.00809e-14 0)
(2.9 -8.83242e-14 0)
(2.9 -8.61348e-14 0)
(2.9 -1.3215e-13 0)
(2.9 -7.48569e-14 0)
(2.9 -3.93992e-14 0)
(2.9 -9.28892e-14 0)
(2.9 -4.10809e-14 0)
(2.9 2.30538e-14 0)
(2.9 -7.26235e-14 0)
(2.9 -8.3221e-14 0)
(2.9 -5.69321e-14 0)
(2.9 4.97207e-14 0)
(2.9 -2.98184e-14 0)
(2.9 -8.35957e-14 0)
(2.9 -8.59626e-14 0)
(2.9 -9.32326e-14 0)
(2.9 8.13259e-15 0)
(2.9 4.19365e-15 0)
(2.9 2.06081e-14 0)
(2.9 8.39521e-14 0)
(2.9 -8.55077e-14 0)
(2.9 -1.04964e-13 0)
(2.9 -9.05405e-14 0)
(2.9 -9.58901e-14 0)
(2.9 6.48924e-15 0)
(2.9 1.55138e-14 0)
(2.9 4.9014e-14 0)
(2.9 2.00776e-14 0)
(2.9 -8.24922e-14 0)
(2.9 -1.16724e-13 0)
(2.9 -1.44322e-13 0)
(2.9 -1.08843e-13 0)
(2.9 -1.10279e-13 0)
(2.9 -2.47085e-14 0)
(2.9 -4.84704e-14 0)
(2.9 -1.51175e-13 0)
(2.9 -5.40594e-14 0)
(2.9 -6.57837e-15 0)
(2.9 6.08644e-14 0)
(2.9 1.3161e-14 0)
(2.9 -4.48538e-14 0)
(2.9 -7.67908e-14 0)
(2.9 -5.46302e-14 0)
(2.9 -3.49373e-14 0)
(2.9 -1.65638e-14 0)
(2.9 3.04827e-14 0)
(2.9 5.97766e-14 0)
(2.9 -1.18562e-14 0)
(2.9 3.7146e-15 0)
(2.9 2.98948e-14 0)
(2.9 -5.93128e-14 0)
(2.9 -1.8215e-14 0)
(2.9 3.22202e-14 0)
(2.9 -7.60933e-15 0)
(2.9 -9.79327e-14 0)
(2.9 -1.23072e-13 0)
(2.9 -1.25876e-13 0)
(2.9 -8.97961e-14 0)
(2.9 -1.45456e-13 0)
(2.9 -3.75694e-14 0)
(2.9 -9.89365e-14 0)
(2.9 -4.92998e-14 0)
(2.9 -5.82809e-14 0)
(2.9 3.47626e-15 0)
(2.9 7.19751e-16 0)
(2.9 1.16494e-15 0)
(2.9 -6.31453e-14 0)
(2.9 -7.12207e-14 0)
(2.9 -1.1005e-13 0)
(2.9 -4.1746e-14 0)
(2.9 1.557e-14 0)
(2.9 -5.90241e-14 0)
(2.9 -7.20882e-14 0)
(2.9 -1.25832e-13 0)
(2.9 -1.15304e-13 0)
(2.9 -6.56634e-14 0)
(2.9 -9.30084e-15 0)
(2.9 2.86943e-14 0)
(2.9 -3.2117e-14 0)
(2.9 3.01124e-14 0)
(2.9 -3.62531e-14 0)
(2.9 -2.90594e-14 0)
(2.9 -1.10746e-13 0)
(2.9 -3.8494e-14 0)
(2.9 7.901e-14 0)
(2.9 7.26891e-14 0)
(2.9 1.17182e-13 0)
(2.9 4.47278e-14 0)
(2.9 -5.4136e-14 0)
(2.9 -8.73936e-14 0)
(2.9 -9.26071e-14 0)
(2.9 -7.26212e-14 0)
(2.9 -1.27886e-13 0)
(2.9 -3.78754e-14 0)
(2.9 -1.6086e-14 0)
(2.9 -9.82882e-14 0)
(2.9 -3.79896e-14 0)
(2.9 -1.90042e-14 0)
(2.9 -2.98652e-14 0)
(2.9 -3.16125e-14 0)
(2.9 -1.24886e-13 0)
(2.9 -1.12283e-13 0)
(2.9 -7.43572e-15 0)
(2.9 -1.95318e-14 0)
(2.9 -4.2269e-14 0)
(2.9 4.12504e-14 0)
(2.9 6.8789e-14 0)
(2.9 7.54527e-15 0)
(2.9 3.81541e-14 0)
(2.9 1.47312e-15 0)
(2.9 -8.38102e-14 0)
(2.9 -1.67536e-14 0)
(2.9 -2.30504e-14 0)
(2.9 -4.61487e-14 0)
(2.9 -1.3712e-13 0)
(2.9 -1.94896e-13 0)
(2.9 -1.65811e-13 0)
(2.9 -8.28464e-14 0)
(2.9 -1.52448e-13 0)
(2.9 -1.09482e-13 0)
(2.9 -9.77229e-14 0)
(2.9 -1.16532e-14 0)
(2.9 1.02926e-14 0)
(2.9 8.58163e-14 0)
(2.9 5.57388e-14 0)
(2.9 -4.00972e-14 0)
(2.9 -1.00443e-13 0)
(2.9 -7.9904e-14 0)
(2.9 -1.45935e-13 0)
(2.9 -4.47667e-14 0)
(2.9 -1.39848e-14 0)
(2.9 -1.12822e-13 0)
(2.9 -8.18535e-14 0)
(2.9 -1.15004e-13 0)
(2.9 -1.40445e-13 0)
(2.9 -6.9291e-14 0)
(2.9 -4.78558e-14 0)
(2.9 -4.49877e-14 0)
(2.9 -6.54923e-14 0)
(2.9 -2.42524e-15 0)
(2.9 7.16959e-15 0)
(2.9 5.04067e-14 0)
(2.9 -1.23618e-13 0)
(2.9 -2.95753e-14 0)
(2.9 -4.09657e-15 0)
(2.9 1.04229e-13 0)
(2.9 1.60276e-13 0)
(2.9 7.82775e-14 0)
(2.9 7.88363e-16 0)
(2.9 -6.27463e-14 0)
(2.9 -4.3065e-14 0)
(2.9 -3.28769e-14 0)
(2.9 -1.27325e-13 0)
(2.9 -1.19503e-13 0)
(2.9 -5.25138e-14 0)
(2.9 -2.83972e-15 0)
(2.9 6.07509e-14 0)
(2.9 1.13979e-14 0)
(2.9 -7.73396e-14 0)
(2.9 -1.18812e-13 0)
(2.9 -6.98617e-14 0)
(2.9 -2.61979e-14 0)
(2.9 5.35674e-14 0)
(2.9 -1.96186e-14 0)
(2.9 7.58582e-16 0)
(2.9 2.7043e-14 0)
(2.9 8.92496e-14 0)
(2.9 8.42885e-14 0)
(2.9 7.73709e-14 0)
(2.9 -1.28436e-14 0)
(2.9 -1.39133e-15 0)
(2.9 3.79898e-14 0)
(2.9 7.45105e-15 0)
(2.9 -1.76581e-14 0)
(2.9 -7.7469e-14 0)
(2.9 -9.52387e-14 0)
(2.9 -6.811e-14 0)
(2.9 6.18606e-15 0)
(2.9 -4.93102e-14 0)
(2.9 -6.38553e-14 0)
(2.9 -5.21396e-14 0)
(2.9 4.22628e-15 0)
(2.9 4.35886e-14 0)
(2.9 5.61082e-14 0)
(2.9 4.94862e-14 0)
(2.9 -3.08038e-14 0)
(2.9 -3.79749e-14 0)
(2.9 -4.53673e-14 0)
(2.9 -9.78687e-14 0)
(2.9 -7.06682e-14 0)
(2.9 -2.29624e-14 0)
(2.9 -6.03813e-14 0)
(2.9 -1.24267e-13 0)
(2.9 -1.29634e-13 0)
(2.9 -7.27174e-14 0)
(2.9 -4.42449e-14 0)
(2.9 -6.18852e-14 0)
(2.9 -5.60885e-14 0)
(2.9 -4.62952e-14 0)
(2.9 -4.65222e-14 0)
(2.9 1.02979e-14 0)
(2.9 2.28442e-14 0)
(2.9 -1.02885e-14 0)
(2.9 -1.0497e-14 0)
(2.9 -6.21337e-14 0)
(2.9 2.96722e-14 0)
(2.9 6.23795e-14 0)
(2.9 6.1592e-15 0)
(2.9 5.03918e-14 0)
(2.9 -9.02621e-15 0)
(2.9 -2.3854e-14 0)
(2.9 -8.08333e-14 0)
(2.9 -1.26665e-13 0)
(2.9 -1.35429e-13 0)
(2.9 -7.4691e-14 0)
(2.9 5.86841e-15 0)
(2.9 5.20406e-14 0)
(2.9 5.86783e-14 0)
(2.9 -8.94752e-14 0)
(2.9 -1.35937e-13 0)
(2.9 -1.99767e-14 0)
(2.9 6.37014e-14 0)
(2.9 -2.29841e-15 0)
(2.9 -4.16111e-14 0)
(2.9 4.41262e-14 0)
(2.9 2.27503e-14 0)
(2.9 1.32045e-13 0)
(2.9 1.1644e-13 0)
(2.9 1.1295e-13 0)
(2.9 1.11719e-14 0)
(2.9 7.37279e-14 0)
(2.9 4.04777e-15 0)
(2.9 3.71697e-14 0)
(2.9 -1.65546e-14 0)
(2.9 -2.99064e-14 0)
(2.9 5.95682e-15 0)
(2.9 3.79804e-14 0)
(2.9 5.98574e-14 0)
(2.9 3.02955e-14 0)
(2.9 3.5839e-14 0)
(2.9 4.88844e-15 0)
(2.9 6.01949e-14 0)
(2.9 8.40727e-14 0)
(2.9 5.054e-14 0)
(2.9 4.2458e-14 0)
(2.9 5.22014e-14 0)
(2.9 -1.84135e-14 0)
(2.9 -1.72258e-14 0)
(2.9 4.06748e-14 0)
(2.9 1.29446e-14 0)
(2.9 2.60286e-14 0)
(2.9 2.9261e-14 0)
(2.9 -4.9196e-14 0)
(2.9 -8.45874e-14 0)
(2.9 3.47153e-15 0)
(2.9 -3.41802e-14 0)
(2.9 -2.7051e-14 0)
(2.9 -1.20212e-14 0)
(2.9 -3.10995e-14 0)
(2.9 -9.94955e-14 0)
(2.9 -1.56351e-14 0)
(2.9 5.84424e-16 0)
(2.9 6.1756e-14 0)
(2.9 5.78529e-14 0)
(2.9 -7.9676e-17 0)
(2.9 -4.49969e-14 0)
(2.9 -1.04165e-13 0)
(2.9 3.12238e-16 0)
(2.9 9.0726e-14 0)
(2.9 2.07753e-14 0)
(2.9 1.33014e-14 0)
(2.9 -4.91917e-14 0)
(2.9 -8.97782e-14 0)
(2.9 -4.14634e-14 0)
(2.9 -2.39676e-14 0)
(2.9 7.26178e-14 0)
(2.9 3.66834e-14 0)
(2.9 1.18469e-13 0)
(2.9 -2.29901e-15 0)
(2.9 -8.09179e-14 0)
(2.9 -5.97243e-14 0)
(2.9 3.51099e-14 0)
(2.9 -4.13675e-14 0)
(2.9 -4.0756e-14 0)
(2.9 -3.13738e-14 0)
(2.9 4.86373e-15 0)
(2.9 5.9848e-14 0)
(2.9 1.1817e-13 0)
(2.9 4.41328e-14 0)
(2.9 3.71427e-14 0)
(2.9 2.04774e-14 0)
(2.9 -6.65578e-14 0)
(2.9 5.96868e-14 0)
(2.9 -2.33045e-14 0)
(2.9 6.01416e-14 0)
(2.9 5.77243e-14 0)
(2.9 9.51797e-14 0)
(2.9 2.11463e-14 0)
(2.9 2.76287e-14 0)
(2.9 7.13107e-14 0)
(2.9 1.1357e-13 0)
(2.9 9.9247e-14 0)
(2.9 9.52835e-14 0)
(2.9 4.94035e-14 0)
(2.9 1.83017e-14 0)
(2.9 1.03651e-13 0)
(2.9 8.65621e-15 0)
(2.9 -8.63673e-15 0)
(2.9 1.0309e-13 0)
(2.9 1.02854e-13 0)
(2.9 2.83485e-14 0)
(2.9 9.74755e-14 0)
(2.9 8.039e-15 0)
(2.9 -2.06648e-14 0)
(2.9 3.28292e-14 0)
(2.9 -2.22624e-14 0)
(2.9 -5.21813e-14 0)
(2.9 -6.5147e-14 0)
(2.9 -4.4887e-15 0)
(2.9 4.29963e-15 0)
(2.9 -5.17553e-14 0)
(2.9 -1.22324e-14 0)
(2.9 8.99407e-14 0)
(2.9 4.44871e-14 0)
(2.9 -4.41739e-14 0)
(2.9 -1.21187e-13 0)
(2.9 -6.20178e-14 0)
(2.9 7.48048e-14 0)
(2.9 7.94937e-14 0)
(2.9 7.14632e-15 0)
(2.9 4.66045e-14 0)
(2.9 1.52673e-14 0)
(2.9 6.07247e-14 0)
(2.9 2.93158e-14 0)
(2.9 3.05849e-14 0)
(2.9 1.40987e-13 0)
(2.9 4.61939e-14 0)
(2.9 8.24417e-14 0)
(2.9 8.01679e-14 0)
(2.9 -2.15453e-14 0)
(2.9 -7.15928e-14 0)
(2.9 3.16158e-15 0)
(2.9 -4.02851e-14 0)
(2.9 -1.97989e-14 0)
(2.9 -5.8392e-14 0)
(2.9 -2.37998e-14 0)
(2.9 -5.50225e-14 0)
(2.9 4.52566e-14 0)
(2.9 -1.87982e-14 0)
(2.9 -4.28012e-15 0)
(2.9 -1.58036e-14 0)
(2.9 -1.052e-13 0)
(2.9 6.1819e-16 0)
(2.9 -1.40647e-14 0)
(2.9 1.3084e-13 0)
(2.9 1.29899e-13 0)
(2.9 9.20969e-14 0)
(2.9 -2.44269e-14 0)
(2.9 4.06803e-15 0)
(2.9 6.60071e-14 0)
(2.9 1.10207e-13 0)
(2.9 5.61208e-14 0)
(2.9 7.48066e-14 0)
(2.9 3.49109e-14 0)
(2.9 -1.67291e-14 0)
(2.9 3.22598e-14 0)
(2.9 -2.00948e-14 0)
(2.9 1.50037e-14 0)
(2.9 5.49042e-14 0)
(2.9 3.34955e-14 0)
(2.9 -2.21263e-14 0)
(2.9 4.62511e-15 0)
(2.9 -1.5319e-14 0)
(2.9 2.46787e-14 0)
(2.9 2.33197e-14 0)
(2.9 2.63791e-14 0)
(2.9 -9.20938e-15 0)
(2.9 -1.12779e-13 0)
(2.9 4.46086e-14 0)
(2.9 1.21529e-13 0)
(2.9 -3.93447e-14 0)
(2.9 3.1903e-14 0)
(2.9 2.14513e-14 0)
(2.9 -2.69619e-14 0)
(2.9 -4.14488e-14 0)
(2.9 -1.23531e-13 0)
(2.9 -5.3248e-14 0)
(2.9 7.12138e-14 0)
(2.9 1.25292e-13 0)
(2.9 2.38595e-14 0)
(2.9 7.006e-14 0)
(2.9 5.84123e-14 0)
(2.9 5.31377e-14 0)
(2.9 -1.35155e-14 0)
(2.9 6.62343e-15 0)
(2.9 8.70872e-14 0)
(2.9 -4.83471e-15 0)
(2.9 -9.2197e-15 0)
(2.9 5.3668e-14 0)
(2.9 1.65767e-14 0)
(2.9 -4.01309e-14 0)
(2.9 -4.07659e-14 0)
(2.9 -3.1625e-14 0)
(2.9 4.86256e-15 0)
(2.9 -4.154e-14 0)
(2.9 -4.58474e-14 0)
(2.9 -4.21613e-14 0)
(2.9 -3.95886e-14 0)
(2.9 -4.6184e-14 0)
(2.9 -8.03379e-15 0)
(2.9 2.76562e-14 0)
(2.9 -5.99553e-14 0)
(2.9 -8.71022e-14 0)
(2.9 4.55129e-15 0)
(2.9 6.97251e-14 0)
(2.9 1.0307e-13 0)
(2.9 3.1764e-14 0)
(2.9 8.22765e-15 0)
(2.9 5.7656e-14 0)
(2.9 2.419e-14 0)
(2.9 9.70425e-14 0)
(2.9 1.47117e-14 0)
(2.9 2.7121e-14 0)
(2.9 1.08866e-14 0)
(2.9 -1.32338e-15 0)
(2.9 -4.42707e-14 0)
(2.9 8.65328e-15 0)
(2.9 -3.02629e-14 0)
(2.9 -5.10706e-14 0)
(2.9 -1.81785e-14 0)
(2.9 -5.78501e-14 0)
(2.9 -5.71818e-14 0)
(2.9 1.66086e-14 0)
(2.9 7.05779e-14 0)
(2.9 3.68426e-15 0)
(2.9 1.28798e-14 0)
(2.9 -4.07911e-14 0)
(2.9 -5.18064e-14 0)
(2.9 3.60211e-14 0)
(2.9 1.43213e-13 0)
(2.9 1.01836e-14 0)
(2.9 -7.21725e-15 0)
(2.9 -2.85049e-14 0)
(2.9 5.18086e-14 0)
(2.9 -7.20973e-15 0)
(2.9 -1.8202e-14 0)
(2.9 -2.58232e-14 0)
(2.9 -1.49453e-14 0)
(2.9 1.51947e-14 0)
(2.9 -1.30107e-15 0)
(2.9 7.10712e-14 0)
(2.9 5.87524e-14 0)
(2.9 7.9034e-14 0)
(2.9 5.60492e-14 0)
(2.9 2.95803e-14 0)
(2.9 -6.7782e-15 0)
(2.9 -2.16831e-14 0)
(2.9 -4.23657e-14 0)
(2.9 -1.09963e-14 0)
(2.9 7.90239e-14 0)
(2.9 4.85804e-14 0)
(2.9 -2.26138e-14 0)
(2.9 1.35903e-14 0)
(2.9 -1.77286e-14 0)
(2.9 -4.29863e-14 0)
(2.9 1.10783e-14 0)
(2.9 -4.81712e-14 0)
(2.9 -9.46156e-14 0)
(2.9 -5.84685e-14 0)
(2.9 4.69949e-14 0)
(2.9 5.32267e-14 0)
(2.9 -4.13902e-16 0)
(2.9 -1.51674e-15 0)
(2.9 4.91668e-14 0)
(2.9 5.52665e-14 0)
(2.9 6.49114e-14 0)
(2.9 3.90475e-14 0)
(2.9 6.19043e-14 0)
(2.9 9.03467e-14 0)
(2.9 4.68969e-14 0)
(2.9 4.08029e-14 0)
(2.9 -2.6365e-14 0)
(2.9 1.84791e-15 0)
(2.9 -1.81766e-14 0)
(2.9 -2.40843e-14 0)
(2.9 1.39063e-14 0)
(2.9 3.17815e-14 0)
(2.9 -4.21289e-14 0)
(2.9 -5.05649e-14 0)
(2.9 -1.01149e-14 0)
(2.9 -8.60173e-15 0)
(2.9 -8.29413e-15 0)
(2.9 4.89772e-14 0)
(2.9 8.39539e-14 0)
(2.9 5.52904e-14 0)
(2.9 3.55573e-14 0)
(2.9 -3.27043e-14 0)
(2.9 2.78194e-14 0)
(2.9 6.53428e-14 0)
(2.9 1.18655e-13 0)
(2.9 -5.12569e-14 0)
(2.9 -6.93761e-14 0)
(2.9 1.34277e-14 0)
(2.9 9.17133e-14 0)
(2.9 1.25465e-14 0)
(2.9 1.55915e-15 0)
(2.9 3.78667e-14 0)
(2.9 -6.44389e-14 0)
(2.9 -5.99519e-14 0)
(2.9 5.43665e-14 0)
(2.9 9.52751e-14 0)
(2.9 8.50277e-14 0)
(2.9 1.31807e-13 0)
(2.9 1.22286e-13 0)
(2.9 -5.49776e-15 0)
(2.9 -1.18988e-13 0)
(2.9 -1.33955e-14 0)
(2.9 1.66522e-14 0)
(2.9 3.64574e-14 0)
(2.9 1.11338e-13 0)
(2.9 9.82017e-14 0)
(2.9 4.85838e-14 0)
(2.9 7.60538e-14 0)
(2.9 1.5356e-14 0)
(2.9 1.64159e-14 0)
(2.9 5.5682e-15 0)
(2.9 -1.05443e-13 0)
(2.9 -1.77813e-13 0)
(2.9 -6.36711e-14 0)
(2.9 7.86388e-14 0)
(2.9 8.2456e-14 0)
(2.9 6.84108e-14 0)
(2.9 8.12169e-14 0)
(2.9 6.74141e-14 0)
(2.9 2.42231e-14 0)
(2.9 7.25434e-14 0)
(2.9 6.50173e-14 0)
(2.9 1.87336e-14 0)
(2.9 9.65915e-14 0)
(2.9 6.1788e-14 0)
(2.9 2.69615e-14 0)
(2.9 -3.3687e-14 0)
(2.9 -2.60557e-14 0)
(2.9 -5.81275e-14 0)
(2.9 -2.38611e-14 0)
(2.9 6.62842e-14 0)
(2.9 9.24527e-14 0)
(2.9 -6.98444e-15 0)
(2.9 1.85717e-14 0)
(2.9 9.81962e-15 0)
(2.9 4.60381e-14 0)
(2.9 6.93265e-14 0)
(2.9 2.25058e-14 0)
(2.9 4.35853e-14 0)
(2.9 5.79505e-14 0)
(2.9 1.45546e-14 0)
(2.9 -6.77042e-15 0)
(2.9 1.10365e-13 0)
(2.9 1.20288e-13 0)
(2.9 1.58512e-13 0)
(2.9 -1.22267e-13 0)
(2.9 -1.51218e-13 0)
(2.9 -1.62517e-14 0)
(2.9 3.7901e-14 0)
(2.9 1.54315e-14 0)
(2.9 -1.95604e-14 0)
(2.9 3.11799e-14 0)
(2.9 1.95559e-14 0)
(2.9 3.41932e-14 0)
(2.9 1.21357e-13 0)
(2.9 5.14587e-14 0)
(2.9 5.20125e-14 0)
(2.9 8.26671e-14 0)
(2.9 7.31599e-14 0)
(2.9 -1.60381e-14 0)
(2.9 -9.7206e-14 0)
(2.9 3.74257e-14 0)
(2.9 1.04834e-13 0)
(2.9 7.5454e-14 0)
(2.9 9.8828e-14 0)
(2.9 1.19026e-13 0)
(2.9 8.27001e-14 0)
(2.9 5.52047e-14 0)
(2.9 8.08168e-14 0)
(2.9 8.6542e-14 0)
(2.9 -1.10412e-14 0)
(2.9 -6.72211e-14 0)
(2.9 -1.4293e-13 0)
(2.9 -2.21765e-14 0)
(2.9 5.73071e-14 0)
(2.9 6.06786e-14 0)
(2.9 1.8807e-14 0)
(2.9 4.91312e-15 0)
(2.9 6.15081e-14 0)
(2.9 6.69681e-15 0)
(2.9 4.35968e-14 0)
(2.9 4.91063e-15 0)
(2.9 -7.54578e-14 0)
(2.9 1.12045e-14 0)
(2.9 1.88136e-14 0)
(2.9 2.04583e-14 0)
(2.9 5.04887e-15 0)
(2.9 -4.16775e-14 0)
(2.9 -1.00121e-13 0)
(2.9 -5.56125e-14 0)
(2.9 -4.50912e-14 0)
(2.9 6.42492e-14 0)
(2.9 -3.28827e-14 0)
(2.9 1.08492e-15 0)
(2.9 -5.50118e-14 0)
(2.9 -2.24859e-14 0)
(2.9 -1.46973e-15 0)
(2.9 -4.62248e-15 0)
(2.9 3.05542e-14 0)
(2.9 3.04671e-15 0)
(2.9 -3.33509e-15 0)
(2.9 6.42886e-14 0)
(2.9 7.34304e-14 0)
(2.9 2.88312e-14 0)
(2.9 1.01843e-13 0)
(2.9 -4.82937e-14 0)
(2.9 -7.24773e-14 0)
(2.9 -6.19808e-16 0)
(2.9 1.67208e-14 0)
(2.9 5.73373e-14 0)
(2.9 4.38702e-14 0)
(2.9 -1.43894e-14 0)
(2.9 3.32909e-14 0)
(2.9 5.72133e-14 0)
(2.9 7.3587e-14 0)
(2.9 9.9767e-15 0)
(2.9 2.05372e-15 0)
(2.9 1.20973e-14 0)
(2.9 4.04419e-14 0)
(2.9 6.48998e-14 0)
(2.9 1.9195e-14 0)
(2.9 1.74194e-14 0)
(2.9 7.80757e-14 0)
(2.9 1.06842e-13 0)
(2.9 1.07813e-13 0)
(2.9 1.04179e-13 0)
(2.9 6.17482e-14 0)
(2.9 1.56262e-14 0)
(2.9 6.94428e-14 0)
(2.9 5.47482e-14 0)
(2.9 5.59628e-14 0)
(2.9 -1.55191e-14 0)
(2.9 3.66006e-14 0)
(2.9 3.76347e-14 0)
(2.9 3.21016e-14 0)
(2.9 1.35655e-14 0)
(2.9 7.31022e-14 0)
(2.9 -1.12156e-14 0)
(2.9 2.51612e-14 0)
(2.9 4.40669e-14 0)
(2.9 -3.17698e-14 0)
(2.9 -7.07298e-14 0)
(2.9 -5.46343e-14 0)
(2.9 -3.53369e-14 0)
(2.9 -6.87177e-14 0)
(2.9 -3.65376e-14 0)
(2.9 1.20201e-14 0)
(2.9 -7.01325e-14 0)
(2.9 -3.99927e-14 0)
(2.9 -7.22731e-14 0)
(2.9 -1.29241e-13 0)
(2.9 -6.71483e-14 0)
(2.9 -8.58124e-14 0)
(2.9 6.81599e-15 0)
(2.9 -5.31407e-14 0)
(2.9 -2.56862e-14 0)
(2.9 -5.55257e-14 0)
(2.9 6.89796e-15 0)
(2.9 4.04601e-15 0)
(2.9 -4.34294e-14 0)
(2.9 -1.65692e-14 0)
(2.9 9.60934e-14 0)
(2.9 6.16114e-14 0)
(2.9 -4.21848e-14 0)
(2.9 -6.69864e-14 0)
(2.9 -2.32057e-15 0)
(2.9 -7.19425e-14 0)
(2.9 2.38765e-14 0)
(2.9 -1.36589e-14 0)
(2.9 2.98e-14 0)
(2.9 8.62868e-14 0)
(2.9 2.4504e-14 0)
(2.9 1.38909e-14 0)
(2.9 2.50921e-14 0)
(2.9 1.55599e-14 0)
(2.9 6.36225e-14 0)
(2.9 4.27054e-14 0)
(2.9 -1.00859e-14 0)
(2.9 8.82622e-14 0)
(2.9 1.15688e-13 0)
(2.9 6.59336e-14 0)
(2.9 -3.61642e-14 0)
(2.9 3.21285e-14 0)
(2.9 1.50633e-13 0)
(2.9 7.50495e-14 0)
(2.9 3.53312e-14 0)
(2.9 1.23086e-14 0)
(2.9 9.36846e-15 0)
(2.9 2.99245e-15 0)
(2.9 -4.92158e-14 0)
(2.9 2.98715e-14 0)
(2.9 7.99998e-14 0)
(2.9 1.46712e-13 0)
(2.9 5.98485e-14 0)
(2.9 1.34292e-14 0)
(2.9 -2.14996e-14 0)
(2.9 1.21821e-13 0)
(2.9 3.6757e-14 0)
(2.9 -2.56146e-14 0)
(2.9 5.1375e-14 0)
(2.9 -4.78841e-14 0)
(2.9 -5.12178e-14 0)
(2.9 3.03608e-14 0)
(2.9 -6.81838e-14 0)
(2.9 -5.1025e-14 0)
(2.9 -9.30682e-14 0)
(2.9 -1.73596e-14 0)
(2.9 -9.94785e-14 0)
(2.9 6.34213e-14 0)
(2.9 4.18022e-14 0)
(2.9 -5.34172e-14 0)
(2.9 -1.10734e-13 0)
(2.9 -5.77719e-14 0)
(2.9 -1.92134e-14 0)
(2.9 1.1993e-14 0)
(2.9 -2.33587e-14 0)
(2.9 -8.09164e-14 0)
(2.9 5.26307e-14 0)
(2.9 -8.1368e-14 0)
(2.9 -6.88104e-14 0)
(2.9 1.65419e-14 0)
(2.9 7.41722e-14 0)
(2.9 1.02206e-13 0)
(2.9 -1.09164e-14 0)
(2.9 -2.0417e-13 0)
(2.9 -1.6429e-14 0)
(2.9 -3.65339e-14 0)
(2.9 1.67972e-15 0)
(2.9 -6.32237e-14 0)
(2.9 3.88236e-15 0)
(2.9 3.53793e-14 0)
(2.9 5.72473e-14 0)
(2.9 6.35031e-14 0)
(2.9 1.18843e-13 0)
(2.9 4.5877e-14 0)
(2.9 2.4865e-14 0)
(2.9 1.72133e-14 0)
(2.9 1.471e-14 0)
(2.9 4.09507e-14 0)
(2.9 4.90439e-14 0)
(2.9 4.23565e-14 0)
(2.9 -5.16129e-14 0)
(2.9 2.29841e-14 0)
(2.9 6.0696e-14 0)
(2.9 3.80177e-14 0)
(2.9 2.1487e-14 0)
(2.9 1.40274e-14 0)
(2.9 5.02921e-14 0)
(2.9 8.01033e-14 0)
(2.9 3.30216e-14 0)
(2.9 -5.85236e-15 0)
(2.9 5.1094e-14 0)
(2.9 9.1182e-14 0)
(2.9 1.35679e-14 0)
(2.9 5.29935e-14 0)
(2.9 3.42874e-14 0)
(2.9 8.46795e-14 0)
(2.9 2.10668e-14 0)
(2.9 -4.58335e-15 0)
(2.9 4.75891e-14 0)
(2.9 -2.6553e-15 0)
(2.9 -2.74973e-14 0)
(2.9 4.4999e-14 0)
(2.9 -2.55641e-14 0)
(2.9 -1.70963e-14 0)
(2.9 -8.68357e-14 0)
(2.9 -1.30391e-14 0)
(2.9 -7.16372e-15 0)
(2.9 -4.03346e-15 0)
(2.9 1.93344e-14 0)
(2.9 2.27994e-14 0)
(2.9 -2.86941e-14 0)
(2.9 -3.99333e-15 0)
(2.9 3.84078e-14 0)
(2.9 3.29505e-14 0)
(2.9 -3.48338e-15 0)
(2.9 1.64969e-14 0)
(2.9 3.89135e-14 0)
(2.9 -2.53253e-14 0)
(2.9 7.3022e-15 0)
(2.9 5.82352e-14 0)
(2.9 6.07895e-14 0)
(2.9 6.2377e-14 0)
(2.9 -2.10819e-14 0)
(2.9 -1.72299e-13 0)
(2.9 -1.95239e-14 0)
(2.9 -2.52691e-14 0)
(2.9 -5.81046e-14 0)
(2.9 -1.30759e-13 0)
(2.9 -3.82543e-14 0)
(2.9 -2.18039e-14 0)
(2.9 -9.75079e-15 0)
(2.9 -2.75002e-14 0)
(2.9 5.86421e-14 0)
(2.9 7.54931e-14 0)
(2.9 -1.05572e-14 0)
(2.9 -1.85549e-14 0)
(2.9 -2.75491e-15 0)
(2.9 -3.28665e-14 0)
(2.9 -1.40637e-14 0)
(2.9 -3.42742e-14 0)
(2.9 1.23336e-14 0)
(2.9 1.12195e-15 0)
(2.9 -5.93493e-14 0)
(2.9 3.48624e-14 0)
(2.9 2.57781e-14 0)
(2.9 -3.5795e-15 0)
(2.9 2.50918e-14 0)
(2.9 1.11765e-13 0)
(2.9 9.19609e-14 0)
(2.9 3.24646e-14 0)
(2.9 -1.83477e-14 0)
(2.9 -5.81275e-14 0)
(2.9 3.40386e-14 0)
(2.9 7.17211e-14 0)
(2.9 6.4673e-14 0)
(2.9 8.57108e-14 0)
(2.9 1.6435e-14 0)
(2.9 3.54522e-14 0)
(2.9 6.82483e-14 0)
(2.9 5.69339e-14 0)
(2.9 8.32421e-15 0)
(2.9 -6.01444e-15 0)
(2.9 4.55255e-14 0)
(2.9 8.16641e-14 0)
(2.9 -2.15852e-15 0)
(2.9 1.72662e-14 0)
(2.9 6.6616e-14 0)
(2.9 -1.05426e-14 0)
(2.9 -3.71587e-14 0)
(2.9 1.60435e-14 0)
(2.9 2.05295e-14 0)
(2.9 3.41345e-14 0)
(2.9 2.5309e-14 0)
(2.9 7.08521e-14 0)
(2.9 3.03085e-14 0)
(2.9 1.18367e-13 0)
(2.9 6.28514e-14 0)
(2.9 7.98511e-14 0)
(2.9 1.00083e-13 0)
(2.9 1.365e-13 0)
(2.9 9.4739e-14 0)
(2.9 5.66829e-14 0)
(2.9 -7.49949e-14 0)
(2.9 -1.16035e-13 0)
(2.9 -7.80763e-14 0)
(2.9 -2.98616e-15 0)
(2.9 -6.32091e-14 0)
(2.9 -1.04801e-13 0)
(2.9 -9.99586e-14 0)
(2.9 -9.76752e-14 0)
(2.9 -5.99573e-14 0)
(2.9 -7.28708e-14 0)
(2.9 -2.18046e-14 0)
(2.9 -2.79958e-14 0)
(2.9 2.7164e-14 0)
(2.9 2.3412e-14 0)
(2.9 -1.97615e-15 0)
(2.9 -7.83889e-14 0)
(2.9 -5.12579e-14 0)
(2.9 -1.44673e-14 0)
(2.9 4.51224e-14 0)
(2.9 -2.23578e-14 0)
(2.9 -1.23787e-13 0)
(2.9 1.11554e-14 0)
(2.9 8.58683e-14 0)
(2.9 -3.63815e-14 0)
(2.9 -2.06966e-14 0)
(2.9 8.04138e-14 0)
(2.9 3.46385e-14 0)
(2.9 6.82487e-14 0)
(2.9 -3.77802e-14 0)
(2.9 -9.6897e-14 0)
(2.9 1.13395e-14 0)
(2.9 4.43523e-14 0)
(2.9 6.77218e-14 0)
(2.9 7.08658e-14 0)
(2.9 4.54342e-14 0)
(2.9 3.57966e-14 0)
(2.9 2.53476e-14 0)
(2.9 3.57665e-14 0)
(2.9 3.49375e-14 0)
(2.9 -4.256e-14 0)
(2.9 7.40789e-14 0)
(2.9 1.61076e-13 0)
(2.9 8.98211e-14 0)
(2.9 -3.09546e-15 0)
(2.9 7.32947e-14 0)
(2.9 3.45363e-14 0)
(2.9 7.93898e-15 0)
(2.9 5.25051e-14 0)
(2.9 -1.07473e-15 0)
(2.9 9.46969e-14 0)
(2.9 -1.84234e-14 0)
(2.9 1.38049e-13 0)
(2.9 1.41591e-13 0)
(2.9 1.32468e-13 0)
(2.9 1.3341e-13 0)
(2.9 1.28752e-13 0)
(2.9 1.01588e-13 0)
(2.9 1.60841e-13 0)
(2.9 1.56709e-13 0)
(2.9 9.24937e-14 0)
(2.9 -4.2991e-14 0)
(2.9 8.39991e-15 0)
(2.9 -3.64597e-15 0)
(2.9 3.68876e-14 0)
(2.9 1.57627e-14 0)
(2.9 1.52023e-15 0)
(2.9 -9.89995e-14 0)
(2.9 -1.13185e-13 0)
(2.9 -7.05209e-14 0)
(2.9 -3.6797e-14 0)
(2.9 -8.57476e-14 0)
(2.9 -1.37197e-14 0)
(2.9 3.31954e-14 0)
(2.9 8.00536e-15 0)
(2.9 -2.70815e-14 0)
(2.9 -1.18737e-13 0)
(2.9 -2.04544e-14 0)
(2.9 1.37887e-14 0)
(2.9 5.43874e-14 0)
(2.9 6.71919e-15 0)
(2.9 -7.24156e-14 0)
(2.9 -4.99892e-14 0)
(2.9 6.09056e-14 0)
(2.9 3.76818e-14 0)
(2.9 -2.65836e-14 0)
(2.9 -1.59521e-14 0)
(2.9 -3.3409e-14 0)
(2.9 -2.30112e-14 0)
(2.9 -6.77899e-14 0)
(2.9 -1.01033e-13 0)
(2.9 -2.02132e-14 0)
(2.9 1.42833e-14 0)
(2.9 3.04065e-14 0)
(2.9 -3.41839e-14 0)
(2.9 1.16359e-14 0)
(2.9 1.00745e-14 0)
(2.9 -5.75741e-14 0)
(2.9 3.47866e-14 0)
(2.9 8.23836e-14 0)
(2.9 1.53148e-14 0)
(2.9 7.47132e-14 0)
(2.9 1.22074e-13 0)
(2.9 2.83423e-14 0)
(2.9 -5.18208e-14 0)
(2.9 1.33375e-14 0)
(2.9 -3.7228e-14 0)
(2.9 3.66707e-14 0)
(2.9 1.549e-14 0)
(2.9 2.15865e-14 0)
(2.9 5.28192e-14 0)
(2.9 3.14351e-16 0)
(2.9 2.0701e-14 0)
(2.9 9.62611e-14 0)
(2.9 8.39925e-14 0)
(2.9 5.30723e-14 0)
(2.9 4.99061e-14 0)
(2.9 2.22571e-14 0)
(2.9 1.46708e-15 0)
(2.9 9.6242e-14 0)
(2.9 6.06426e-14 0)
(2.9 8.0491e-14 0)
(2.9 1.17074e-13 0)
(2.9 6.68404e-14 0)
(2.9 7.78946e-14 0)
(2.9 7.64493e-14 0)
(2.9 5.77058e-14 0)
(2.9 -6.19374e-14 0)
(2.9 -6.72498e-14 0)
(2.9 -6.36485e-14 0)
(2.9 -3.45246e-14 0)
(2.9 -7.67978e-14 0)
(2.9 2.27173e-14 0)
(2.9 -5.2909e-15 0)
(2.9 -1.12395e-14 0)
(2.9 -1.02789e-13 0)
(2.9 -9.78986e-14 0)
(2.9 1.62705e-14 0)
(2.9 7.19383e-14 0)
(2.9 5.7529e-14 0)
(2.9 -2.86367e-15 0)
(2.9 -4.2663e-14 0)
(2.9 -5.3196e-14 0)
(2.9 7.56426e-14 0)
(2.9 4.93222e-14 0)
(2.9 -2.33673e-14 0)
(2.9 -1.4839e-13 0)
(2.9 -6.75973e-14 0)
(2.9 -5.7913e-14 0)
(2.9 -8.87038e-14 0)
(2.9 -9.69628e-14 0)
(2.9 1.18645e-14 0)
(2.9 -1.0224e-14 0)
(2.9 1.64052e-16 0)
(2.9 -5.96006e-14 0)
(2.9 -4.70677e-15 0)
(2.9 3.24862e-14 0)
(2.9 -5.08227e-14 0)
(2.9 3.79043e-14 0)
(2.9 1.22447e-13 0)
(2.9 5.79869e-14 0)
(2.9 4.22221e-14 0)
(2.9 1.87649e-15 0)
(2.9 2.85071e-14 0)
(2.9 -1.7456e-14 0)
(2.9 4.11647e-17 0)
(2.9 -5.64277e-14 0)
(2.9 1.1753e-14 0)
(2.9 8.39072e-15 0)
(2.9 7.22369e-14 0)
(2.9 1.0092e-14 0)
(2.9 1.63092e-14 0)
(2.9 -6.09336e-14 0)
(2.9 8.75012e-15 0)
(2.9 -9.00537e-15 0)
(2.9 -5.16831e-14 0)
(2.9 -2.44175e-14 0)
(2.9 -6.27892e-14 0)
(2.9 -7.04101e-14 0)
(2.9 -1.70683e-14 0)
(2.9 -5.71228e-14 0)
(2.9 3.05013e-14 0)
(2.9 1.40343e-13 0)
(2.9 2.98622e-14 0)
(2.9 4.78248e-14 0)
(2.9 5.5759e-14 0)
(2.9 9.49203e-14 0)
(2.9 4.92872e-14 0)
(2.9 1.23438e-14 0)
(2.9 -1.36698e-14 0)
(2.9 1.4182e-14 0)
(2.9 -8.39094e-14 0)
(2.9 -2.3189e-14 0)
(2.9 -6.61921e-14 0)
(2.9 -2.18754e-14 0)
(2.9 -1.10707e-13 0)
(2.9 -7.65401e-14 0)
(2.9 7.80347e-15 0)
(2.9 7.09378e-14 0)
(2.9 -3.65978e-15 0)
(2.9 -8.20538e-14 0)
(2.9 -5.09247e-14 0)
(2.9 -1.89178e-14 0)
(2.9 5.15855e-14 0)
(2.9 3.31999e-14 0)
(2.9 -5.02124e-14 0)
(2.9 -1.83664e-13 0)
(2.9 -7.43169e-14 0)
(2.9 -4.79127e-14 0)
(2.9 -7.43708e-14 0)
(2.9 -6.01276e-15 0)
(2.9 4.94215e-14 0)
(2.9 -6.53663e-14 0)
(2.9 -4.98223e-14 0)
(2.9 -5.22361e-14 0)
(2.9 1.00366e-14 0)
(2.9 1.40729e-14 0)
(2.9 -3.50709e-14 0)
(2.9 2.84497e-14 0)
(2.9 7.28211e-14 0)
(2.9 2.88976e-14 0)
(2.9 -1.35436e-14 0)
(2.9 -5.22842e-14 0)
(2.9 -1.47655e-14 0)
(2.9 4.22578e-14 0)
(2.9 5.53561e-14 0)
(2.9 -2.15031e-15 0)
(2.9 -4.81379e-14 0)
(2.9 -2.22604e-14 0)
(2.9 6.49607e-14 0)
(2.9 1.2312e-14 0)
(2.9 5.48959e-14 0)
(2.9 -1.6576e-14 0)
(2.9 3.60892e-14 0)
(2.9 1.60627e-16 0)
(2.9 -9.73207e-14 0)
(2.9 -2.94247e-14 0)
(2.9 -1.00989e-13 0)
(2.9 -8.74045e-14 0)
(2.9 -6.36559e-14 0)
(2.9 -1.54877e-13 0)
(2.9 -7.70735e-14 0)
(2.9 5.51496e-14 0)
(2.9 3.21756e-14 0)
(2.9 2.45515e-14 0)
(2.9 9.16301e-15 0)
(2.9 8.45414e-14 0)
(2.9 8.80364e-14 0)
(2.9 5.20678e-14 0)
(2.9 5.6082e-14 0)
(2.9 -3.76019e-14 0)
(2.9 -4.81537e-14 0)
(2.9 -6.48443e-14 0)
(2.9 -5.95946e-14 0)
(2.9 -2.19952e-14 0)
(2.9 -7.62028e-14 0)
(2.9 -9.56249e-14 0)
(2.9 -5.77902e-14 0)
(2.9 -5.10859e-14 0)
(2.9 -6.02911e-14 0)
(2.9 -2.5452e-14 0)
(2.9 -6.37179e-14 0)
(2.9 -6.23506e-14 0)
(2.9 -2.53432e-14 0)
(2.9 5.67402e-14 0)
(2.9 2.93859e-14 0)
(2.9 -1.12672e-13 0)
(2.9 -1.26965e-13 0)
(2.9 -9.77713e-14 0)
(2.9 -3.68014e-14 0)
(2.9 3.60254e-14 0)
(2.9 5.33587e-14 0)
(2.9 -5.40905e-14 0)
(2.9 -2.18066e-14 0)
(2.9 -7.98743e-15 0)
(2.9 -3.07542e-14 0)
(2.9 -7.92774e-14 0)
(2.9 -8.51479e-14 0)
(2.9 -4.37599e-14 0)
(2.9 -4.00466e-14 0)
(2.9 -2.3789e-14 0)
(2.9 -7.00504e-14 0)
(2.9 -4.58045e-14 0)
(2.9 -3.60565e-15 0)
(2.9 6.50701e-14 0)
(2.9 2.4504e-14 0)
(2.9 5.06474e-15 0)
(2.9 -2.52e-15 0)
(2.9 -4.15414e-14 0)