/*--------------------------------*- C++ -*----------------------------------*\
| =========                 |                                                 |
| \\      /  F ield         | OpenFOAM: The Open Source CFD Toolbox           |
|  \\    /   O peration     | Version:  2412                                  |
|   \\  /    A nd           | Website:  www.openfoam.com                      |
|    \\/     M anipulation  |                                                 |
\*---------------------------------------------------------------------------*/
FoamFile
{
    version     2.0;
    format      ascii;
    arch        "LSB;label=32;scalar=64";
    class       volScalarField;
    location    "0.0528085";
    object      TTR;
}
// * * * * * * * * * * * * * * * * * * * * * * * * * * * * * * * * * * * * * //

dimensions      [0 0 0 1 0 0 0];

internalField   nonuniform List<scalar> 
100
(
312.303
310.77
321.606
312.112
320.555
313.877
320.384
318.023
322.038
320.733
313.37
312.748
308.92
301.31
313.027
314.78
283.407
253.185
255.058
254.93
254.055
256.056
253.559
255.563
253.362
256.289
254.752
258.543
256.795
259.207
256.777
257.349
255.396
257.238
259.3
265.228
266.57
267.829
267.769
267.075
261.951
257.15
255.115
255.234
255.503
256
256.271
256.134
255.972
256.42
257.032
257.619
258.333
259.096
259.819
260.246
260.831
260.845
259.816
258.584
258.127
258.097
258.561
259.167
260.054
260.802
261.673
261.911
261.95
260.968
260.522
259.883
259.195
259.04
257.257
258.306
256.063
259.434
257.994
263.472
267.627
277.788
293.65
307.936
331.732
343.038
355.464
356.279
360.846
361.294
361.421
363.278
360.725
363.407
359.747
362.33
358.854
360.766
358.849
359.4
)
;

boundaryField
{
    sides
    {
        type            zeroGradient;
    }
    empty
    {
        type            empty;
    }
}


// ************************************************************************* //
