/*--------------------------------*- C++ -*----------------------------------*\
| =========                 |                                                 |
| \\      /  F ield         | OpenFOAM: The Open Source CFD Toolbox           |
|  \\    /   O peration     | Version:  2412                                  |
|   \\  /    A nd           | Website:  www.openfoam.com                      |
|    \\/     M anipulation  |                                                 |
\*---------------------------------------------------------------------------*/
FoamFile
{
    version     2.0;
    format      ascii;
    arch        "LSB;label=32;scalar=64";
    class       volScalarField;
    location    "0.0179162";
    object      rhoY_Y_N2;
}
// * * * * * * * * * * * * * * * * * * * * * * * * * * * * * * * * * * * * * //

dimensions      [1 -3 0 0 0 0 0];

internalField   nonuniform List<scalar> 
100
(
0.790689
0.78935
0.789043
0.789103
0.789899
0.793444
0.800251
0.809406
0.817322
0.821105
0.820083
0.811858
0.797985
0.783389
0.770048
0.758375
0.747585
0.736994
0.726241
0.715551
0.705149
0.694532
0.684782
0.674039
0.664631
0.654381
0.644746
0.635415
0.625761
0.616758
0.607182
0.598632
0.589219
0.580504
0.571409
0.563094
0.554353
0.545738
0.53709
0.529045
0.521299
0.51326
0.504806
0.496952
0.490721
0.483542
0.475628
0.470016
0.465543
0.72062
0.514059
0.508315
0.502593
0.50252
0.500303
0.487204
0.476759
0.485792
0.508345
0.50388
0.466093
0.451179
0.485316
0.526811
0.511418
0.449013
0.43292
0.483345
0.537319
0.520257
0.448439
0.425002
0.463225
0.531913
0.531704
0.469072
0.427713
0.43998
0.505962
0.536628
0.509706
0.450638
0.595243
1.01282
1.07748
1.00527
1.06592
1.18378
0.875111
0.440235
0.165048
0.0489382
0.0117152
0.00216678
0.000310195
3.39513e-05
2.66098e-06
1.28688e-07
2.36068e-09
-5.58078e-11
)
;

boundaryField
{
    sides
    {
        type            calculated;
        value           nonuniform List<scalar> 2(0 1.12308);
    }
    empty
    {
        type            empty;
    }
}


// ************************************************************************* //
