/*--------------------------------*- C++ -*----------------------------------*\
| =========                 |                                                 |
| \\      /  F ield         | OpenFOAM: The Open Source CFD Toolbox           |
|  \\    /   O peration     | Version:  2412                                  |
|   \\  /    A nd           | Website:  www.openfoam.com                      |
|    \\/     M anipulation  |                                                 |
\*---------------------------------------------------------------------------*/
FoamFile
{
    version     2.0;
    format      ascii;
    arch        "LSB;label=32;scalar=64";
    class       surfaceScalarField;
    location    "0.00182421";
    object      phiRhoY_Y_N2;
}
// * * * * * * * * * * * * * * * * * * * * * * * * * * * * * * * * * * * * * //

dimensions      [1 0 -1 0 0 0 0];

internalField   nonuniform List<scalar> 
99
(
-1.13687e-13
-2.27374e-13
3.41061e-13
3.41061e-13
2.27374e-13
1.13687e-13
-2.27374e-13
-1.13687e-13
0
1.13687e-13
2.27374e-13
0
-3.41061e-13
-2.27374e-13
0
1.13687e-13
5.68434e-13
-2.27374e-13
-2.27374e-13
0
0
2.27374e-13
0
0
1.13687e-13
3.41061e-13
3.41061e-13
5.68434e-13
-2.27374e-13
2.27374e-13
1.13687e-13
5.68434e-13
5.68434e-13
2.27374e-13
-1.13687e-13
-3.41061e-13
-6.82121e-13
2.6148e-12
4.12001e-09
3.60002e-06
0.00193844
0.426
15.581
98.3346
225.888
329.608
404.617
478.852
515.483
509.993
505.451
519.026
431.878
245.068
107.556
37.326
9.56092
1.33721
0.00916026
7.95899e-09
9.40546e-21
1.3286e-38
0
0
0
0
0
0
0
0
0
0
0
0
0
0
0
0
0
0
0
0
0
0
0
0
0
0
0
0
0
0
0
0
0
0
0
0
0
)
;

boundaryField
{
    sides
    {
        type            calculated;
        value           uniform 0;
    }
    empty
    {
        type            empty;
    }
}


// ************************************************************************* //
