/*--------------------------------*- C++ -*----------------------------------*\
| =========                 |                                                 |
| \\      /  F ield         | OpenFOAM: The Open Source CFD Toolbox           |
|  \\    /   O peration     | Version:  2412                                  |
|   \\  /    A nd           | Website:  www.openfoam.com                      |
|    \\/     M anipulation  |                                                 |
\*---------------------------------------------------------------------------*/
FoamFile
{
    version     2.0;
    format      ascii;
    arch        "LSB;label=32;scalar=64";
    class       volScalarField;
    location    "0.00737604";
    object      p;
}
// * * * * * * * * * * * * * * * * * * * * * * * * * * * * * * * * * * * * * //

dimensions      [1 -1 -2 0 0 0 0];

internalField   nonuniform List<scalar> 
100
(
100000
100000
100000
100000
100000
100000
100000
100000
100000
100000
100000
100000
100000
100000
100000
100000
100000
100000
100000
100000
100000
100000
100000
99997.9
99879
98496.4
94214.3
88644.5
83766
79746.1
76219.3
72961.3
69828.7
66893.9
63873.7
61384.8
58145.6
56551.5
52679.9
52033.7
48243.8
47306.7
44453.1
43126
40968.7
38986.4
37080.7
36023.2
34580.7
32903.9
31228
30893.4
32175
32530.2
31793.7
31031.6
31397.7
32616.3
32555.1
31808.7
31154.1
31330.5
32241.6
32351.1
32120.4
31565.5
31353.4
31583.3
32037.5
32156.4
31674.7
31836.3
32145.4
32291.4
32123.9
31523.5
31381.4
31393.8
31508.7
32065
32288.6
32254.6
32325.3
33018.8
32581.6
23014.2
10865.1
10001.1
10000
10000
10000
10000
10000
10000
10000
10000
10000
10000
10000
10000
)
;

boundaryField
{
    sides
    {
        type            zeroGradient;
    }
    empty
    {
        type            empty;
    }
}


// ************************************************************************* //
