/*--------------------------------*- C++ -*----------------------------------*\
| =========                 |                                                 |
| \\      /  F ield         | OpenFOAM: The Open Source CFD Toolbox           |
|  \\    /   O peration     | Version:  2412                                  |
|   \\  /    A nd           | Website:  www.openfoam.com                      |
|    \\/     M anipulation  |                                                 |
\*---------------------------------------------------------------------------*/
FoamFile
{
    version     2.0;
    format      ascii;
    arch        "LSB;label=32;scalar=64";
    class       volScalarField;
    location    "0.0185625";
    object      rho;
}
// * * * * * * * * * * * * * * * * * * * * * * * * * * * * * * * * * * * * * //

dimensions      [1 -3 0 0 0 0 0];

internalField   nonuniform List<scalar> 
100
(
0.747992
0.748121
0.748303
0.74744
0.746139
0.745309
0.745241
0.746712
0.750821
0.757827
0.766075
0.772305
0.775143
0.773575
0.764131
0.750227
0.736423
0.723874
0.71333
0.703756
0.694577
0.684449
0.675168
0.664822
0.655633
0.646155
0.636781
0.627921
0.618678
0.610157
0.600857
0.592547
0.58368
0.575373
0.566528
0.558321
0.550104
0.542105
0.533803
0.525644
0.51789
0.510757
0.503416
0.495311
0.487754
0.482232
0.475713
0.468457
0.464024
0.46152
0.459332
0.458909
0.4584
0.45833
0.463695
0.469011
0.462937
0.446535
0.447593
0.476403
0.48909
0.458728
0.425358
0.436985
0.495412
0.509791
0.454283
0.410869
0.428326
0.501932
0.521465
0.464916
0.408175
0.416511
0.486864
0.522607
0.492193
0.421815
0.407513
0.449606
0.523864
0.825584
0.993561
1.06527
1.02512
0.949233
1.00626
1.1188
1.11515
1.01953
0.915401
0.848747
0.828058
0.827875
0.841224
0.858662
0.875163
0.898298
0.921238
0.938177
)
;

boundaryField
{
    sides
    {
        type            calculated;
        value           nonuniform List<scalar> 2(0.938177 0.747992);
    }
    empty
    {
        type            empty;
    }
}


// ************************************************************************* //
