/*--------------------------------*- C++ -*----------------------------------*\
| =========                 |                                                 |
| \\      /  F ield         | OpenFOAM: The Open Source CFD Toolbox           |
|  \\    /   O peration     | Version:  2412                                  |
|   \\  /    A nd           | Website:  www.openfoam.com                      |
|    \\/     M anipulation  |                                                 |
\*---------------------------------------------------------------------------*/
FoamFile
{
    version     2.0;
    format      ascii;
    arch        "LSB;label=32;scalar=64";
    class       volVectorField;
    location    "5.21466e-06";
    object      U;
}
// * * * * * * * * * * * * * * * * * * * * * * * * * * * * * * * * * * * * * //

dimensions      [0 1 -1 0 0 0 0];

internalField   nonuniform List<vector> 
1800
(
(2.9 1.62693e-16 0)
(2.9 6.92527e-15 0)
(2.9 1.98176e-16 0)
(2.9 5.35291e-18 0)
(2.9 1.46727e-19 0)
(2.9 4.07903e-21 0)
(2.9 1.14883e-22 0)
(2.9 3.27331e-24 0)
(2.9 9.41965e-26 0)
(2.9 2.73314e-27 0)
(2.9 7.98287e-29 0)
(2.9 2.34357e-30 0)
(2.9 -7.01835e-18 0)
(2.9 -1.67284e-16 0)
(2.9 -6.9254e-15 0)
(2.9 -1.9818e-16 0)
(2.9 -5.35302e-18 0)
(2.9 -1.4673e-19 0)
(2.9 -4.07912e-21 0)
(2.9 -1.14886e-22 0)
(2.9 -3.27339e-24 0)
(2.9 -9.41988e-26 0)
(2.9 -2.73321e-27 0)
(2.9 -7.98309e-29 0)
(2.9 -2.34364e-30 0)
(2.9 -6.9066e-32 0)
(2.9 -2.04086e-33 0)
(2.9 -6.0415e-35 0)
(2.9 -1.79036e-36 0)
(2.9 -5.30829e-38 0)
(2.9 -1.57396e-39 0)
(2.9 -4.66573e-41 0)
(2.9 -1.38236e-42 0)
(2.9 -4.09289e-44 0)
(2.9 -1.21085e-45 0)
(2.9 -3.57911e-47 0)
(2.9 -1.05697e-48 0)
(2.9 -3.11852e-50 0)
(2.9 -9.19247e-52 0)
(2.9 -2.70721e-53 0)
(2.9 -7.96579e-55 0)
(2.9 -2.3419e-56 0)
(2.9 -6.87946e-58 0)
(2.9 -2.01933e-59 0)
(2.9 -5.92302e-61 0)
(2.9 -1.73613e-62 0)
(2.9 -5.08559e-64 0)
(2.9 -1.48881e-65 0)
(2.9 -4.35607e-67 0)
(2.9 -1.27386e-68 0)
(2.9 -3.7234e-70 0)
(2.9 -1.08783e-71 0)
(2.9 -3.17687e-73 0)
(2.9 -9.2741e-75 0)
(2.9 -2.70638e-76 0)
(2.9 -7.89519e-78 0)
(2.9 -2.30253e-79 0)
(2.9 -6.71313e-81 0)
(2.9 -1.95674e-82 0)
(2.9 -5.87325e-84 0)
(2.9 4.33554e-17 0)
(2.9 8.61109e-16 0)
(2.9 5.03701e-17 0)
(2.9 2.181e-18 0)
(2.9 8.42568e-20 0)
(2.9 3.07094e-21 0)
(2.9 1.08153e-22 0)
(2.9 3.72551e-24 0)
(2.9 1.26375e-25 0)
(2.9 4.23867e-27 0)
(2.9 1.40923e-28 0)
(2.9 4.65189e-30 0)
(2.9 -1.81945e-18 0)
(2.9 -4.52708e-17 0)
(2.9 -8.61183e-16 0)
(2.9 -5.03727e-17 0)
(2.9 -2.1811e-18 0)
(2.9 -8.42601e-20 0)
(2.9 -3.07105e-21 0)
(2.9 -1.08157e-22 0)
(2.9 -3.72564e-24 0)
(2.9 -1.2638e-25 0)
(2.9 -4.23882e-27 0)
(2.9 -1.40928e-28 0)
(2.9 -4.65205e-30 0)
(2.9 -1.52635e-31 0)
(2.9 -4.98143e-33 0)
(2.9 -1.618e-34 0)
(2.9 -5.23243e-36 0)
(2.9 -1.68526e-37 0)
(2.9 -5.40737e-39 0)
(2.9 -1.72884e-40 0)
(2.9 -5.50888e-42 0)
(2.9 -1.74979e-43 0)
(2.9 -5.54109e-45 0)
(2.9 -1.74968e-46 0)
(2.9 -5.50983e-48 0)
(2.9 -1.73059e-49 0)
(2.9 -5.42226e-51 0)
(2.9 -1.69493e-52 0)
(2.9 -5.28634e-54 0)
(2.9 -1.64528e-55 0)
(2.9 -5.11036e-57 0)
(2.9 -1.58427e-58 0)
(2.9 -4.90248e-60 0)
(2.9 -1.51442e-61 0)
(2.9 -4.67044e-63 0)
(2.9 -1.43808e-64 0)
(2.9 -4.42133e-66 0)
(2.9 -1.35737e-67 0)
(2.9 -4.16147e-69 0)
(2.9 -1.27416e-70 0)
(2.9 -3.89635e-72 0)
(2.9 -1.19006e-73 0)
(2.9 -3.63062e-75 0)
(2.9 -1.10641e-76 0)
(2.9 -3.36813e-78 0)
(2.9 -1.02429e-79 0)
(2.9 -3.11199e-81 0)
(2.9 -9.74086e-83 0)
(2.9 8.08518e-18 0)
(2.9 1.07209e-16 0)
(2.9 9.45938e-18 0)
(2.9 5.54602e-19 0)
(2.9 2.71564e-20 0)
(2.9 1.20119e-21 0)
(2.9 4.97868e-23 0)
(2.9 1.97274e-24 0)
(2.9 7.5632e-26 0)
(2.9 2.82738e-27 0)
(2.9 1.03604e-28 0)
(2.9 3.73489e-30 0)
(2.9 -3.3979e-19 0)
(2.9 -8.57096e-18 0)
(2.9 -1.07232e-16 0)
(2.9 -9.46042e-18 0)
(2.9 -5.54645e-19 0)
(2.9 -2.71581e-20 0)
(2.9 -1.20126e-21 0)
(2.9 -4.97894e-23 0)
(2.9 -1.97283e-24 0)
(2.9 -7.56354e-26 0)
(2.9 -2.8275e-27 0)
(2.9 -1.03608e-28 0)
(2.9 -3.73504e-30 0)
(2.9 -1.32819e-31 0)
(2.9 -4.66828e-33 0)
(2.9 -1.62421e-34 0)
(2.9 -5.60066e-36 0)
(2.9 -1.91584e-37 0)
(2.9 -6.50647e-39 0)
(2.9 -2.19521e-40 0)
(2.9 -7.36196e-42 0)
(2.9 -2.45527e-43 0)
(2.9 -8.14655e-45 0)
(2.9 -2.69012e-46 0)
(2.9 -8.84365e-48 0)
(2.9 -2.89519e-49 0)
(2.9 -9.44107e-51 0)
(2.9 -3.06736e-52 0)
(2.9 -9.93112e-54 0)
(2.9 -3.20485e-55 0)
(2.9 -1.03103e-56 0)
(2.9 -3.30717e-58 0)
(2.9 -1.05787e-59 0)
(2.9 -3.3749e-61 0)
(2.9 -1.07398e-62 0)
(2.9 -3.40952e-64 0)
(2.9 -1.07994e-65 0)
(2.9 -3.41321e-67 0)
(2.9 -1.07653e-68 0)
(2.9 -3.38866e-70 0)
(2.9 -1.06465e-71 0)
(2.9 -3.33888e-73 0)
(2.9 -1.0453e-74 0)
(2.9 -3.26705e-76 0)
(2.9 -1.01948e-77 0)
(2.9 -3.17642e-79 0)
(2.9 -9.88234e-81 0)
(2.9 -3.16825e-82 0)
(2.9 2.51138e-18 0)
(2.9 1.34336e-17 0)
(2.9 1.57691e-18 0)
(2.9 1.16098e-19 0)
(2.9 6.85582e-21 0)
(2.9 3.55259e-22 0)
(2.9 1.68797e-23 0)
(2.9 7.53947e-25 0)
(2.9 3.21513e-26 0)
(2.9 1.3225e-27 0)
(2.9 5.28486e-29 0)
(2.9 2.06226e-30 0)
(2.9 -5.58656e-20 0)
(2.9 -1.41931e-18 0)
(2.9 -1.33691e-17 0)
(2.9 -1.57413e-18 0)
(2.9 -1.15993e-19 0)
(2.9 -6.85211e-21 0)
(2.9 -3.55134e-22 0)
(2.9 -1.68757e-23 0)
(2.9 -7.53821e-25 0)
(2.9 -3.21475e-26 0)
(2.9 -1.32239e-27 0)
(2.9 -5.28454e-29 0)
(2.9 -2.06218e-30 0)
(2.9 -7.88818e-32 0)
(2.9 -2.96639e-33 0)
(2.9 -1.09918e-34 0)
(2.9 -4.02049e-36 0)
(2.9 -1.45378e-37 0)
(2.9 -5.20296e-39 0)
(2.9 -1.84487e-40 0)
(2.9 -6.48658e-42 0)
(2.9 -2.26313e-43 0)
(2.9 -7.8401e-45 0)
(2.9 -2.69827e-46 0)
(2.9 -9.23015e-48 0)
(2.9 -3.1396e-49 0)
(2.9 -1.0623e-50 0)
(2.9 -3.5766e-52 0)
(2.9 -1.19862e-53 0)
(2.9 -3.99938e-55 0)
(2.9 -1.32898e-56 0)
(2.9 -4.39904e-58 0)
(2.9 -1.45078e-59 0)
(2.9 -4.76794e-61 0)
(2.9 -1.5618e-62 0)
(2.9 -5.09986e-64 0)
(2.9 -1.66032e-65 0)
(2.9 -5.39003e-67 0)
(2.9 -1.74507e-68 0)
(2.9 -5.63519e-70 0)
(2.9 -1.81523e-71 0)
(2.9 -5.83344e-73 0)
(2.9 -1.8704e-74 0)
(2.9 -5.98415e-76 0)
(2.9 -1.91058e-77 0)
(2.9 -6.08782e-79 0)
(2.9 -1.93609e-80 0)
(2.9 -6.34639e-82 0)
(2.9 1.0537e-17 0)
(2.9 1.98538e-18 0)
(2.9 2.55221e-19 0)
(2.9 2.20497e-20 0)
(2.9 1.51147e-21 0)
(2.9 8.94222e-23 0)
(2.9 4.7796e-24 0)
(2.9 2.37197e-25 0)
(2.9 1.11232e-26 0)
(2.9 4.98827e-28 0)
(2.9 2.15749e-29 0)
(2.9 9.05584e-31 0)
(2.9 -8.57835e-21 0)
(2.9 -2.18962e-19 0)
(2.9 -1.66875e-18 0)
(2.9 -2.45296e-19 0)
(2.9 -2.17335e-20 0)
(2.9 -1.5013e-21 0)
(2.9 -8.90927e-23 0)
(2.9 -4.76891e-24 0)
(2.9 -2.3685e-25 0)
(2.9 -1.1112e-26 0)
(2.9 -4.98467e-28 0)
(2.9 -2.15633e-29 0)
(2.9 -9.05217e-31 0)
(2.9 -3.70508e-32 0)
(2.9 -1.484e-33 0)
(2.9 -5.83318e-35 0)
(2.9 -2.25536e-36 0)
(2.9 -8.59371e-38 0)
(2.9 -3.23201e-39 0)
(2.9 -1.20131e-40 0)
(2.9 -4.41776e-42 0)
(2.9 -1.60889e-43 0)
(2.9 -5.80732e-45 0)
(2.9 -2.07902e-46 0)
(2.9 -7.38654e-48 0)
(2.9 -2.60593e-49 0)
(2.9 -9.13337e-51 0)
(2.9 -3.18153e-52 0)
(2.9 -1.10191e-53 0)
(2.9 -3.7959e-55 0)
(2.9 -1.30101e-56 0)
(2.9 -4.43778e-58 0)
(2.9 -1.50692e-59 0)
(2.9 -5.09513e-61 0)
(2.9 -1.71578e-62 0)
(2.9 -5.75566e-64 0)
(2.9 -1.92372e-65 0)
(2.9 -6.40729e-67 0)
(2.9 -2.127e-68 0)
(2.9 -7.03858e-70 0)
(2.9 -2.32215e-71 0)
(2.9 -7.63904e-73 0)
(2.9 -2.50603e-74 0)
(2.9 -8.19943e-76 0)
(2.9 -2.67594e-77 0)
(2.9 -8.71187e-79 0)
(2.9 -2.82964e-80 0)
(2.9 -9.47524e-82 0)
(2.9 8.25382e-20 0)
(2.9 2.14632e-19 0)
(2.9 3.71315e-20 0)
(2.9 3.81941e-21 0)
(2.9 3.0105e-22 0)
(2.9 2.00864e-23 0)
(2.9 1.19416e-24 0)
(2.9 6.52081e-26 0)
(2.9 3.33523e-27 0)
(2.9 1.61941e-28 0)
(2.9 7.53639e-30 0)
(2.9 3.38558e-31 0)
(2.9 -1.26217e-21 0)
(2.9 -3.23287e-20 0)
(2.9 -2.08525e-19 0)
(2.9 -3.66841e-20 0)
(2.9 -3.79338e-21 0)
(2.9 -2.99729e-22 0)
(2.9 -2.00252e-23 0)
(2.9 -1.19151e-24 0)
(2.9 -6.50987e-26 0)
(2.9 -3.33089e-27 0)
(2.9 -1.61774e-28 0)
(2.9 -7.53015e-30 0)
(2.9 -3.3833e-31 0)
(2.9 -1.47529e-32 0)
(2.9 -6.26975e-34 0)
(2.9 -2.60565e-35 0)
(2.9 -1.06183e-36 0)
(2.9 -4.25232e-38 0)
(2.9 -1.67663e-39 0)
(2.9 -6.51862e-41 0)
(2.9 -2.5024e-42 0)
(2.9 -9.4957e-44 0)
(2.9 -3.56525e-45 0)
(2.9 -1.32561e-46 0)
(2.9 -4.88454e-48 0)
(2.9 -1.78485e-49 0)
(2.9 -6.47145e-51 0)
(2.9 -2.32943e-52 0)
(2.9 -8.32818e-54 0)
(2.9 -2.95859e-55 0)
(2.9 -1.04476e-56 0)
(2.9 -3.66862e-58 0)
(2.9 -1.28137e-59 0)
(2.9 -4.45307e-61 0)
(2.9 -1.54019e-62 0)
(2.9 -5.30301e-64 0)
(2.9 -1.81804e-65 0)
(2.9 -6.2074e-67 0)
(2.9 -2.11117e-68 0)
(2.9 -7.15355e-70 0)
(2.9 -2.41535e-71 0)
(2.9 -8.12763e-73 0)
(2.9 -2.72608e-74 0)
(2.9 -9.11515e-76 0)
(2.9 -3.03874e-77 0)
(2.9 -1.01014e-78 0)
(2.9 -3.34873e-80 0)
(2.9 -1.1448e-81 0)
(2.9 -1.01822e-17 0)
(2.9 -2.77851e-19 0)
(2.9 -3.81073e-21 0)
(2.9 3.53634e-22 0)
(2.9 4.76504e-23 0)
(2.9 3.90643e-24 0)
(2.9 2.64621e-25 0)
(2.9 1.59944e-26 0)
(2.9 8.9203e-28 0)
(2.9 4.67795e-29 0)
(2.9 2.33509e-30 0)
(2.9 1.11907e-31 0)
(2.9 -1.80359e-22 0)
(2.9 -4.63247e-21 0)
(2.9 -2.60834e-20 0)
(2.9 -5.33363e-21 0)
(2.9 -6.29977e-22 0)
(2.9 -5.60033e-23 0)
(2.9 -4.15789e-24 0)
(2.9 -2.72128e-25 0)
(2.9 -1.62157e-26 0)
(2.9 -8.98432e-28 0)
(2.9 -4.69603e-29 0)
(2.9 -2.34003e-30 0)
(2.9 -1.12035e-31 0)
(2.9 -5.18478e-33 0)
(2.9 -2.33022e-34 0)
(2.9 -1.0209e-35 0)
(2.9 -4.37338e-37 0)
(2.9 -1.83649e-38 0)
(2.9 -7.57537e-40 0)
(2.9 -3.07492e-41 0)
(2.9 -1.23007e-42 0)
(2.9 -4.8557e-44 0)
(2.9 -1.89359e-45 0)
(2.9 -7.30222e-47 0)
(2.9 -2.78696e-48 0)
(2.9 -1.05352e-49 0)
(2.9 -3.94713e-51 0)
(2.9 -1.46659e-52 0)
(2.9 -5.40699e-54 0)
(2.9 -1.97896e-55 0)
(2.9 -7.19349e-57 0)
(2.9 -2.598e-58 0)
(2.9 -9.32597e-60 0)
(2.9 -3.32849e-61 0)
(2.9 -1.1815e-62 0)
(2.9 -4.17227e-64 0)
(2.9 -1.46615e-65 0)
(2.9 -5.12806e-67 0)
(2.9 -1.78565e-68 0)
(2.9 -6.19148e-70 0)
(2.9 -2.13813e-71 0)
(2.9 -7.35512e-73 0)
(2.9 -2.52079e-74 0)
(2.9 -8.60878e-76 0)
(2.9 -2.93001e-77 0)
(2.9 -9.93982e-79 0)
(2.9 -3.36146e-80 0)
(2.9 -1.17258e-81 0)
(2.9 -1.22713e-18 0)
(2.9 -7.11519e-20 0)
(2.9 -2.61151e-21 0)
(2.9 -3.52372e-23 0)
(2.9 4.79592e-24 0)
(2.9 6.24849e-25 0)
(2.9 5.13626e-26 0)
(2.9 3.5134e-27 0)
(2.9 2.15434e-28 0)
(2.9 1.22333e-29 0)
(2.9 6.54983e-31 0)
(2.9 3.34467e-32 0)
(2.9 -2.52297e-23 0)
(2.9 -6.49547e-22 0)
(2.9 -3.2657e-21 0)
(2.9 -7.59738e-22 0)
(2.9 -1.00837e-22 0)
(2.9 -9.95615e-24 0)
(2.9 -8.12897e-25 0)
(2.9 -5.80227e-26 0)
(2.9 -3.74407e-27 0)
(2.9 -2.23275e-28 0)
(2.9 -1.24954e-29 0)
(2.9 -6.6361e-31 0)
(2.9 -3.37265e-32 0)
(2.9 -1.65093e-33 0)
(2.9 -7.82354e-35 0)
(2.9 -3.60387e-36 0)
(2.9 -1.61911e-37 0)
(2.9 -7.11416e-39 0)
(2.9 -3.06419e-40 0)
(2.9 -1.29628e-41 0)
(2.9 -5.39505e-43 0)
(2.9 -2.21224e-44 0)
(2.9 -8.94842e-46 0)
(2.9 -3.57448e-47 0)
(2.9 -1.41139e-48 0)
(2.9 -5.51332e-50 0)
(2.9 -2.13227e-51 0)
(2.9 -8.17e-53 0)
(2.9 -3.10326e-54 0)
(2.9 -1.16913e-55 0)
(2.9 -4.37096e-57 0)
(2.9 -1.62237e-58 0)
(2.9 -5.98078e-60 0)
(2.9 -2.19061e-61 0)
(2.9 -7.97483e-63 0)
(2.9 -2.88644e-64 0)
(2.9 -1.039e-65 0)
(2.9 -3.72042e-67 0)
(2.9 -1.32558e-68 0)
(2.9 -4.70065e-70 0)
(2.9 -1.65935e-71 0)
(2.9 -5.83223e-73 0)
(2.9 -2.0414e-74 0)
(2.9 -7.11701e-76 0)
(2.9 -2.47179e-77 0)
(2.9 -8.55338e-79 0)
(2.9 -2.94946e-80 0)
(2.9 -1.04938e-81 0)
(2.9 -1.47978e-19 0)
(2.9 -1.32504e-20 0)
(2.9 -7.21154e-22 0)
(2.9 -2.60689e-23 0)
(2.9 -1.95303e-25 0)
(2.9 7.09799e-26 0)
(2.9 8.45385e-27 0)
(2.9 6.86434e-28 0)
(2.9 4.71347e-29 0)
(2.9 2.92097e-30 0)
(2.9 1.68286e-31 0)
(2.9 9.16553e-33 0)
(2.9 -3.47261e-24 0)
(2.9 -8.95893e-23 0)
(2.9 -4.09225e-22 0)
(2.9 -1.06547e-22 0)
(2.9 -1.56882e-23 0)
(2.9 -1.70264e-24 0)
(2.9 -1.5158e-25 0)
(2.9 -1.17156e-26 0)
(2.9 -8.13713e-28 0)
(2.9 -5.19601e-29 0)
(2.9 -3.09961e-30 0)
(2.9 -1.74767e-31 0)
(2.9 -9.39652e-33 0)
(2.9 -4.85068e-34 0)
(2.9 -2.41727e-35 0)
(2.9 -1.16797e-36 0)
(2.9 -5.49139e-38 0)
(2.9 -2.5198e-39 0)
(2.9 -1.13127e-40 0)
(2.9 -4.97968e-42 0)
(2.9 -2.15308e-43 0)
(2.9 -9.15837e-45 0)
(2.9 -3.83766e-46 0)
(2.9 -1.58606e-47 0)
(2.9 -6.47197e-49 0)
(2.9 -2.60984e-50 0)
(2.9 -1.04091e-51 0)
(2.9 -4.10919e-53 0)
(2.9 -1.60668e-54 0)
(2.9 -6.22572e-56 0)
(2.9 -2.39209e-57 0)
(2.9 -9.11807e-59 0)
(2.9 -3.44956e-60 0)
(2.9 -1.29579e-61 0)
(2.9 -4.83488e-63 0)
(2.9 -1.79251e-64 0)
(2.9 -6.6055e-66 0)
(2.9 -2.42015e-67 0)
(2.9 -8.81849e-69 0)
(2.9 -3.19646e-70 0)
(2.9 -1.15285e-71 0)
(2.9 -4.13807e-73 0)
(2.9 -1.47855e-74 0)
(2.9 -5.25982e-76 0)
(2.9 -1.86329e-77 0)
(2.9 -6.57414e-79 0)
(2.9 -2.31057e-80 0)
(2.9 -8.38122e-82 0)
(2.9 -1.78549e-20 0)
(2.9 -2.1777e-21 0)
(2.9 -1.54634e-22 0)
(2.9 -7.87151e-24 0)
(2.9 -2.61108e-25 0)
(2.9 8.75401e-28 0)
(2.9 1.06638e-27 0)
(2.9 1.16496e-28 0)
(2.9 9.29761e-30 0)
(2.9 6.3844e-31 0)
(2.9 3.98573e-32 0)
(2.9 2.32274e-33 0)
(2.9 -4.71922e-25 0)
(2.9 -1.2198e-23 0)
(2.9 -5.13201e-23 0)
(2.9 -1.4761e-23 0)
(2.9 -2.38624e-24 0)
(2.9 -2.8225e-25 0)
(2.9 -2.72037e-26 0)
(2.9 -2.26301e-27 0)
(2.9 -1.68307e-28 0)
(2.9 -1.14566e-29 0)
(2.9 -7.25643e-31 0)
(2.9 -4.32887e-32 0)
(2.9 -2.45478e-33 0)
(2.9 -1.33276e-34 0)
(2.9 -6.96743e-36 0)
(2.9 -3.52353e-37 0)
(2.9 -1.73028e-38 0)
(2.9 -8.27677e-40 0)
(2.9 -3.86689e-41 0)
(2.9 -1.76849e-42 0)
(2.9 -7.93274e-44 0)
(2.9 -3.49584e-45 0)
(2.9 -1.51573e-46 0)
(2.9 -6.47422e-48 0)
(2.9 -2.72734e-49 0)
(2.9 -1.13426e-50 0)
(2.9 -4.66114e-52 0)
(2.9 -1.8942e-53 0)
(2.9 -7.61773e-55 0)
(2.9 -3.03369e-56 0)
(2.9 -1.19707e-57 0)
(2.9 -4.68277e-59 0)
(2.9 -1.8169e-60 0)
(2.9 -6.99516e-62 0)
(2.9 -2.67351e-63 0)
(2.9 -1.01472e-64 0)
(2.9 -3.82599e-66 0)
(2.9 -1.43355e-67 0)
(2.9 -5.33925e-69 0)
(2.9 -1.97728e-70 0)
(2.9 -7.28267e-72 0)
(2.9 -2.66839e-73 0)
(2.9 -9.72841e-75 0)
(2.9 -3.52988e-76 0)
(2.9 -1.27493e-77 0)
(2.9 -4.58466e-79 0)
(2.9 -1.64171e-80 0)
(2.9 -6.06909e-82 0)
(2.9 -2.15559e-21 0)
(2.9 -3.34655e-22 0)
(2.9 -2.91868e-23 0)
(2.9 -1.84998e-24 0)
(2.9 -8.78659e-26 0)
(2.9 -2.53603e-27 0)
(2.9 5.49711e-29 0)
(2.9 1.59839e-29 0)
(2.9 1.62365e-30 0)
(2.9 1.2725e-31 0)
(2.9 8.71837e-33 0)
(2.9 5.46982e-34 0)
(2.9 -6.3478e-26 0)
(2.9 -1.6436e-24 0)
(2.9 -6.4405e-24 0)
(2.9 -2.02496e-24 0)
(2.9 -3.56341e-25 0)
(2.9 -4.56091e-26 0)
(2.9 -4.73031e-27 0)
(2.9 -4.21331e-28 0)
(2.9 -3.34036e-29 0)
(2.9 -2.41433e-30 0)
(2.9 -1.61805e-31 0)
(2.9 -1.01815e-32 0)
(2.9 -6.07289e-34 0)
(2.9 -3.45923e-35 0)
(2.9 -1.89297e-36 0)
(2.9 -9.99962e-38 0)
(2.9 -5.11949e-39 0)
(2.9 -2.54867e-40 0)
(2.9 -1.23726e-41 0)
(2.9 -5.87084e-43 0)
(2.9 -2.72852e-44 0)
(2.9 -1.24425e-45 0)
(2.9 -5.57595e-47 0)
(2.9 -2.45894e-48 0)
(2.9 -1.06836e-49 0)
(2.9 -4.57818e-51 0)
(2.9 -1.93679e-52 0)
(2.9 -8.09581e-54 0)
(2.9 -3.34625e-55 0)
(2.9 -1.3686e-56 0)
(2.9 -5.54232e-58 0)
(2.9 -2.22356e-59 0)
(2.9 -8.84253e-61 0)
(2.9 -3.48724e-62 0)
(2.9 -1.36445e-63 0)
(2.9 -5.29879e-65 0)
(2.9 -2.04316e-66 0)
(2.9 -7.82502e-68 0)
(2.9 -2.97759e-69 0)
(2.9 -1.12608e-70 0)
(2.9 -4.23367e-72 0)
(2.9 -1.58279e-73 0)
(2.9 -5.88561e-75 0)
(2.9 -2.17731e-76 0)
(2.9 -8.01494e-78 0)
(2.9 -2.93643e-79 0)
(2.9 -1.07093e-80 0)
(2.9 -4.03345e-82 0)
(2.9 -2.6039e-22 0)
(2.9 -4.93143e-23 0)
(2.9 -5.09352e-24 0)
(2.9 -3.81687e-25 0)
(2.9 -2.23185e-26 0)
(2.9 -9.83655e-28 0)
(2.9 -2.28003e-29 0)
(2.9 1.28192e-30 0)
(2.9 2.38216e-31 0)
(2.9 2.2797e-32 0)
(2.9 1.75561e-33 0)
(2.9 1.19861e-34 0)
(2.9 -8.46642e-27 0)
(2.9 -2.19574e-25 0)
(2.9 -8.08774e-25 0)
(2.9 -2.75553e-25 0)
(2.9 -5.24061e-26 0)
(2.9 -7.21434e-27 0)
(2.9 -8.00968e-28 0)
(2.9 -7.60437e-29 0)
(2.9 -6.40137e-30 0)
(2.9 -4.89569e-31 0)
(2.9 -3.46098e-32 0)
(2.9 -2.29084e-33 0)
(2.9 -1.43369e-34 0)
(2.9 -8.54904e-36 0)
(2.9 -4.88711e-37 0)
(2.9 -2.69174e-38 0)
(2.9 -1.43436e-39 0)
(2.9 -7.42034e-41 0)
(2.9 -3.7377e-42 0)
(2.9 -1.83773e-43 0)
(2.9 -8.83878e-45 0)
(2.9 -4.16623e-46 0)
(2.9 -1.92772e-47 0)
(2.9 -8.76828e-49 0)
(2.9 -3.92561e-50 0)
(2.9 -1.73185e-51 0)
(2.9 -7.53638e-53 0)
(2.9 -3.23783e-54 0)
(2.9 -1.37448e-55 0)
(2.9 -5.76945e-57 0)
(2.9 -2.39626e-58 0)
(2.9 -9.85369e-60 0)
(2.9 -4.01395e-61 0)
(2.9 -1.62059e-62 0)
(2.9 -6.48793e-64 0)
(2.9 -2.57666e-65 0)
(2.9 -1.01555e-66 0)
(2.9 -3.97369e-68 0)
(2.9 -1.54414e-69 0)
(2.9 -5.96096e-71 0)
(2.9 -2.28671e-72 0)
(2.9 -8.71945e-74 0)
(2.9 -3.30571e-75 0)
(2.9 -1.24635e-76 0)
(2.9 -4.67428e-78 0)
(2.9 -1.74414e-79 0)
(2.9 -6.47631e-81 0)
(2.9 -2.48421e-82 0)
(2.9 -3.14719e-23 0)
(2.9 -7.06135e-24 0)
(2.9 -8.42595e-25 0)
(2.9 -7.24915e-26 0)
(2.9 -4.93334e-27 0)
(2.9 -2.69531e-28 0)
(2.9 -1.09061e-29 0)
(2.9 -1.69702e-31 0)
(2.9 2.42163e-32 0)
(2.9 3.53025e-33 0)
(2.9 3.21697e-34 0)
(2.9 2.4373e-35 0)
(2.9 -1.12123e-27 0)
(2.9 -2.91239e-26 0)
(2.9 -1.0162e-25 0)
(2.9 -3.72438e-26 0)
(2.9 -7.60857e-27 0)
(2.9 -1.12066e-27 0)
(2.9 -1.32588e-28 0)
(2.9 -1.33643e-29 0)
(2.9 -1.19036e-30 0)
(2.9 -9.60311e-32 0)
(2.9 -7.14144e-33 0)
(2.9 -4.95996e-34 0)
(2.9 -3.2497e-35 0)
(2.9 -2.02445e-36 0)
(2.9 -1.20674e-37 0)
(2.9 -6.91837e-39 0)
(2.9 -3.83122e-40 0)
(2.9 -2.05669e-41 0)
(2.9 -1.07353e-42 0)
(2.9 -5.46265e-44 0)
(2.9 -2.71586e-45 0)
(2.9 -1.32182e-46 0)
(2.9 -6.30865e-48 0)
(2.9 -2.957e-49 0)
(2.9 -1.36299e-50 0)
(2.9 -6.18551e-52 0)
(2.9 -2.76666e-53 0)
(2.9 -1.22081e-54 0)
(2.9 -5.31891e-56 0)
(2.9 -2.28989e-57 0)
(2.9 -9.74837e-59 0)
(2.9 -4.1063e-60 0)
(2.9 -1.71248e-61 0)
(2.9 -7.07444e-63 0)
(2.9 -2.89643e-64 0)
(2.9 -1.1758e-65 0)
(2.9 -4.73468e-67 0)
(2.9 -1.89191e-68 0)
(2.9 -7.50446e-70 0)
(2.9 -2.95593e-71 0)
(2.9 -1.15654e-72 0)
(2.9 -4.49619e-74 0)
(2.9 -1.73726e-75 0)
(2.9 -6.67318e-77 0)
(2.9 -2.54889e-78 0)
(2.9 -9.68319e-80 0)
(2.9 -3.65957e-81 0)
(2.9 -1.42922e-82 0)
(2.9 -3.80592e-24 0)
(2.9 -9.90277e-25 0)
(2.9 -1.34058e-25 0)
(2.9 -1.2988e-26 0)
(2.9 -9.99226e-28 0)
(2.9 -6.32533e-29 0)
(2.9 -3.24316e-30 0)
(2.9 -1.18236e-31 0)
(2.9 -5.66648e-34 0)
(2.9 4.17289e-34 0)
(2.9 5.20647e-35 0)
(2.9 4.5557e-36 0)
(2.9 -1.47593e-28 0)
(2.9 -3.83943e-27 0)
(2.9 -1.27748e-26 0)
(2.9 -5.00504e-27 0)
(2.9 -1.09254e-27 0)
(2.9 -1.71391e-28 0)
(2.9 -2.15231e-29 0)
(2.9 -2.29518e-30 0)
(2.9 -2.15636e-31 0)
(2.9 -1.82995e-32 0)
(2.9 -1.42797e-33 0)
(2.9 -1.03832e-34 0)
(2.9 -7.10749e-36 0)
(2.9 -4.61712e-37 0)
(2.9 -2.86491e-38 0)
(2.9 -1.70702e-39 0)
(2.9 -9.8098e-41 0)
(2.9 -5.45734e-42 0)
(2.9 -2.94824e-43 0)
(2.9 -1.55085e-44 0)
(2.9 -7.96176e-46 0)
(2.9 -3.99722e-47 0)
(2.9 -1.96601e-48 0)
(2.9 -9.48786e-50 0)
(2.9 -4.4989e-51 0)
(2.9 -2.09862e-52 0)
(2.9 -9.64117e-54 0)
(2.9 -4.36641e-55 0)
(2.9 -1.95122e-56 0)
(2.9 -8.61049e-58 0)
(2.9 -3.75498e-59 0)
(2.9 -1.61934e-60 0)
(2.9 -6.91011e-62 0)
(2.9 -2.9194e-63 0)
(2.9 -1.22177e-64 0)
(2.9 -5.06733e-66 0)
(2.9 -2.08379e-67 0)
(2.9 -8.49951e-69 0)
(2.9 -3.44002e-70 0)
(2.9 -1.382e-71 0)
(2.9 -5.51292e-73 0)
(2.9 -2.18429e-74 0)
(2.9 -8.5985e-76 0)
(2.9 -3.36382e-77 0)
(2.9 -1.30813e-78 0)
(2.9 -5.05802e-80 0)
(2.9 -1.94501e-81 0)
(2.9 -7.7316e-83 0)
(2.9 -4.60498e-25 0)
(2.9 -1.36699e-25 0)
(2.9 -2.07041e-26 0)
(2.9 -2.22752e-27 0)
(2.9 -1.90276e-28 0)
(2.9 -1.35152e-29 0)
(2.9 -8.05341e-31 0)
(2.9 -3.87221e-32 0)
(2.9 -1.2308e-33 0)
(2.9 1.44584e-35 0)
(2.9 6.83672e-36 0)
(2.9 7.64813e-37 0)
(2.9 -1.93278e-29 0)
(2.9 -5.03508e-28 0)
(2.9 -1.60663e-27 0)
(2.9 -6.69292e-28 0)
(2.9 -1.55394e-28 0)
(2.9 -2.586e-29 0)
(2.9 -3.43479e-30 0)
(2.9 -3.86303e-31 0)
(2.9 -3.81761e-32 0)
(2.9 -3.39944e-33 0)
(2.9 -2.77721e-34 0)
(2.9 -2.10984e-35 0)
(2.9 -1.50606e-36 0)
(2.9 -1.01847e-37 0)
(2.9 -6.56815e-39 0)
(2.9 -4.06142e-40 0)
(2.9 -2.41886e-41 0)
(2.9 -1.3928e-42 0)
(2.9 -7.77869e-44 0)
(2.9 -4.22541e-45 0)
(2.9 -2.23776e-46 0)
(2.9 -1.15783e-47 0)
(2.9 -5.86348e-49 0)
(2.9 -2.91105e-50 0)
(2.9 -1.41889e-51 0)
(2.9 -6.79836e-53 0)
(2.9 -3.20565e-54 0)
(2.9 -1.48912e-55 0)
(2.9 -6.82106e-57 0)
(2.9 -3.08352e-58 0)
(2.9 -1.37672e-59 0)
(2.9 -6.07513e-61 0)
(2.9 -2.65127e-62 0)
(2.9 -1.14497e-63 0)
(2.9 -4.89568e-65 0)
(2.9 -2.07361e-66 0)
(2.9 -8.70433e-68 0)
(2.9 -3.62264e-69 0)
(2.9 -1.49544e-70 0)
(2.9 -6.12525e-72 0)
(2.9 -2.49025e-73 0)
(2.9 -1.00523e-74 0)
(2.9 -4.03013e-76 0)
(2.9 -1.6052e-77 0)
(2.9 -6.35344e-79 0)
(2.9 -2.49958e-80 0)
(2.9 -9.77705e-82 0)
(2.9 -3.95466e-83 0)
(2.9 -5.57474e-26 0)
(2.9 -1.86379e-26 0)
(2.9 -3.12348e-27 0)
(2.9 -3.69207e-28 0)
(2.9 -3.45821e-29 0)
(2.9 -2.70528e-30 0)
(2.9 -1.80434e-31 0)
(2.9 -1.01806e-32 0)
(2.9 -4.56653e-34 0)
(2.9 -1.18997e-35 0)
(2.9 4.8475e-37 0)
(2.9 1.08557e-37 0)
(2.9 -2.51962e-30 0)
(2.9 -6.57302e-29 0)
(2.9 -2.02137e-28 0)
(2.9 -8.91167e-29 0)
(2.9 -2.19186e-29 0)
(2.9 -3.8558e-30 0)
(2.9 -5.39984e-31 0)
(2.9 -6.38714e-32 0)
(2.9 -6.62272e-33 0)
(2.9 -6.17393e-34 0)
(2.9 -5.26976e-35 0)
(2.9 -4.17489e-36 0)
(2.9 -3.10241e-37 0)
(2.9 -2.18058e-38 0)
(2.9 -1.45946e-39 0)
(2.9 -9.35306e-41 0)
(2.9 -5.76579e-42 0)
(2.9 -3.43234e-43 0)
(2.9 -1.97962e-44 0)
(2.9 -1.10934e-45 0)
(2.9 -6.05489e-47 0)
(2.9 -3.2258e-48 0)
(2.9 -1.68064e-49 0)
(2.9 -8.57718e-51 0)
(2.9 -4.29422e-52 0)
(2.9 -2.11188e-53 0)
(2.9 -1.02144e-54 0)
(2.9 -4.86382e-56 0)
(2.9 -2.28235e-57 0)
(2.9 -1.05634e-58 0)
(2.9 -4.82605e-60 0)
(2.9 -2.17801e-61 0)
(2.9 -9.71618e-63 0)
(2.9 -4.28712e-64 0)
(2.9 -1.87203e-65 0)
(2.9 -8.09404e-67 0)
(2.9 -3.4668e-68 0)
(2.9 -1.47163e-69 0)
(2.9 -6.19371e-71 0)
(2.9 -2.58557e-72 0)
(2.9 -1.07095e-73 0)
(2.9 -4.40286e-75 0)
(2.9 -1.79717e-76 0)
(2.9 -7.28554e-78 0)
(2.9 -2.93407e-79 0)
(2.9 -1.17416e-80 0)
(2.9 -4.67029e-82 0)
(2.9 -1.92166e-83 0)
(2.9 -6.75217e-27 0)
(2.9 -2.51598e-27 0)
(2.9 -4.62359e-28 0)
(2.9 -5.95344e-29 0)
(2.9 -6.05796e-30 0)
(2.9 -5.15549e-31 0)
(2.9 -3.77061e-32 0)
(2.9 -2.38451e-33 0)
(2.9 -1.27667e-34 0)
(2.9 -5.28726e-36 0)
(2.9 -9.85884e-38 0)
(2.9 1.04025e-38 0)
(2.9 -3.27164e-31 0)
(2.9 -8.54643e-30 0)
(2.9 -2.544e-29 0)
(2.9 -1.18213e-29 0)
(2.9 -3.06905e-30 0)
(2.9 -5.68909e-31 0)
(2.9 -8.37686e-32 0)
(2.9 -1.03946e-32 0)
(2.9 -1.12827e-33 0)
(2.9 -1.09888e-34 0)
(2.9 -9.78108e-36 0)
(2.9 -8.06686e-37 0)
(2.9 -6.23063e-38 0)
(2.9 -4.54507e-39 0)
(2.9 -3.15281e-40 0)
(2.9 -2.09144e-41 0)
(2.9 -1.33297e-42 0)
(2.9 -8.19482e-44 0)
(2.9 -4.87602e-45 0)
(2.9 -2.81618e-46 0)
(2.9 -1.58276e-47 0)
(2.9 -8.67535e-49 0)
(2.9 -4.64636e-50 0)
(2.9 -2.43577e-51 0)
(2.9 -1.25174e-52 0)
(2.9 -6.31456e-54 0)
(2.9 -3.13074e-55 0)
(2.9 -1.52723e-56 0)
(2.9 -7.33746e-58 0)
(2.9 -3.47508e-59 0)
(2.9 -1.62374e-60 0)
(2.9 -7.49083e-62 0)
(2.9 -3.4143e-63 0)
(2.9 -1.53853e-64 0)
(2.9 -6.858e-66 0)
(2.9 -3.02558e-67 0)
(2.9 -1.32177e-68 0)
(2.9 -5.72056e-70 0)
(2.9 -2.45383e-71 0)
(2.9 -1.04363e-72 0)
(2.9 -4.40255e-74 0)
(2.9 -1.84278e-75 0)
(2.9 -7.65581e-77 0)
(2.9 -3.15785e-78 0)
(2.9 -1.2936e-79 0)
(2.9 -5.2642e-81 0)
(2.9 -2.12865e-82 0)
(2.9 -8.90747e-84 0)
(2.9 -8.18237e-28 0)
(2.9 -3.36877e-28 0)
(2.9 -6.73768e-29 0)
(2.9 -9.38449e-30 0)
(2.9 -1.02985e-30 0)
(2.9 -9.45069e-32 0)
(2.9 -7.48244e-33 0)
(2.9 -5.1802e-34 0)
(2.9 -3.12357e-35 0)
(2.9 -1.58575e-36 0)
(2.9 -5.95678e-38 0)
(2.9 -5.01466e-40 0)
(2.9 -4.23322e-32 0)
(2.9 -1.1073e-30 0)
(2.9 -3.20263e-30 0)
(2.9 -1.56287e-30 0)
(2.9 -4.26937e-31 0)
(2.9 -8.31593e-32 0)
(2.9 -1.28416e-32 0)
(2.9 -1.66783e-33 0)
(2.9 -1.89117e-34 0)
(2.9 -1.92068e-35 0)
(2.9 -1.7797e-36 0)
(2.9 -1.52559e-37 0)
(2.9 -1.22294e-38 0)
(2.9 -9.2461e-40 0)
(2.9 -6.63913e-41 0)
(2.9 -4.55343e-42 0)
(2.9 -2.99717e-43 0)
(2.9 -1.90098e-44 0)
(2.9 -1.16581e-45 0)
(2.9 -6.93344e-47 0)
(2.9 -4.00918e-48 0)
(2.9 -2.25905e-49 0)
(2.9 -1.24285e-50 0)
(2.9 -6.68792e-52 0)
(2.9 -3.52553e-53 0)
(2.9 -1.82314e-54 0)
(2.9 -9.26033e-56 0)
(2.9 -4.62519e-57 0)
(2.9 -2.27392e-58 0)
(2.9 -1.10146e-59 0)
(2.9 -5.26106e-61 0)
(2.9 -2.47986e-62 0)
(2.9 -1.15436e-63 0)
(2.9 -5.30998e-65 0)
(2.9 -2.41517e-66 0)
(2.9 -1.08679e-67 0)
(2.9 -4.84074e-69 0)
(2.9 -2.13526e-70 0)
(2.9 -9.33157e-72 0)
(2.9 -4.04208e-73 0)
(2.9 -1.73608e-74 0)
(2.9 -7.39608e-76 0)
(2.9 -3.12644e-77 0)
(2.9 -1.31176e-78 0)
(2.9 -5.46433e-80 0)
(2.9 -2.26061e-81 0)
(2.9 -9.29046e-83 0)
(2.9 -3.95267e-84 0)
(2.9 -9.92033e-29 0)
(2.9 -4.47998e-29 0)
(2.9 -9.68987e-30 0)
(2.9 -1.45136e-30 0)
(2.9 -1.7075e-31 0)
(2.9 -1.67829e-32 0)
(2.9 -1.42566e-33 0)
(2.9 -1.0654e-34 0)
(2.9 -7.03662e-36 0)
(2.9 -4.05754e-37 0)
(2.9 -1.94639e-38 0)
(2.9 -6.43424e-40 0)
(2.9 -5.46031e-33 0)
(2.9 -1.43014e-31 0)
(2.9 -4.0327e-31 0)
(2.9 -2.06008e-31 0)
(2.9 -5.9046e-32 0)
(2.9 -1.20542e-32 0)
(2.9 -1.94768e-33 0)
(2.9 -2.6421e-34 0)
(2.9 -3.12374e-35 0)
(2.9 -3.30243e-36 0)
(2.9 -3.18045e-37 0)
(2.9 -2.82953e-38 0)
(2.9 -2.35086e-39 0)
(2.9 -1.83984e-40 0)
(2.9 -1.3659e-41 0)
(2.9 -9.67508e-43 0)
(2.9 -6.57028e-44 0)
(2.9 -4.2952e-45 0)
(2.9 -2.7125e-46 0)
(2.9 -1.65979e-47 0)
(2.9 -9.86664e-49 0)
(2.9 -5.71104e-50 0)
(2.9 -3.22528e-51 0)
(2.9 -1.78034e-52 0)
(2.9 -9.62088e-54 0)
(2.9 -5.09709e-55 0)
(2.9 -2.65083e-56 0)
(2.9 -1.35487e-57 0)
(2.9 -6.81277e-59 0)
(2.9 -3.37345e-60 0)
(2.9 -1.64637e-61 0)
(2.9 -7.92555e-63 0)
(2.9 -3.76613e-64 0)
(2.9 -1.76774e-65 0)
(2.9 -8.20096e-67 0)
(2.9 -3.76258e-68 0)
(2.9 -1.70808e-69 0)
(2.9 -7.67627e-71 0)
(2.9 -3.4167e-72 0)
(2.9 -1.50683e-73 0)
(2.9 -6.58711e-75 0)
(2.9 -2.85536e-76 0)
(2.9 -1.22776e-77 0)
(2.9 -5.23832e-79 0)
(2.9 -2.21837e-80 0)
(2.9 -9.3274e-82 0)
(2.9 -3.89493e-83 0)
(2.9 -1.68441e-84 0)
(2.9 -1.20331e-29 0)
(2.9 -5.92343e-30 0)
(2.9 -1.37799e-30 0)
(2.9 -2.2084e-31 0)
(2.9 -2.77162e-32 0)
(2.9 -2.90212e-33 0)
(2.9 -2.62764e-34 0)
(2.9 -2.09985e-35 0)
(2.9 -1.49516e-36 0)
(2.9 -9.46765e-38 0)
(2.9 -5.22565e-39 0)
(2.9 -2.35289e-40 0)
(2.9 -7.02336e-34 0)
(2.9 -1.84189e-32 0)
(2.9 -5.07885e-32 0)
(2.9 -2.70823e-32 0)
(2.9 -8.1234e-33 0)
(2.9 -1.73412e-33 0)
(2.9 -2.92564e-34 0)
(2.9 -4.13738e-35 0)
(2.9 -5.09144e-36 0)
(2.9 -5.59418e-37 0)
(2.9 -5.59129e-38 0)
(2.9 -5.1556e-39 0)
(2.9 -4.43395e-40 0)
(2.9 -3.58784e-41 0)
(2.9 -2.75096e-42 0)
(2.9 -2.0104e-43 0)
(2.9 -1.40719e-44 0)
(2.9 -9.47318e-46 0)
(2.9 -6.15536e-47 0)
(2.9 -3.87217e-48 0)
(2.9 -2.36459e-49 0)
(2.9 -1.40498e-50 0)
(2.9 -8.13942e-52 0)
(2.9 -4.60592e-53 0)
(2.9 -2.55004e-54 0)
(2.9 -1.3833e-55 0)
(2.9 -7.36199e-57 0)
(2.9 -3.84856e-58 0)
(2.9 -1.97829e-59 0)
(2.9 -1.00091e-60 0)
(2.9 -4.98885e-62 0)
(2.9 -2.45166e-63 0)
(2.9 -1.18878e-64 0)
(2.9 -5.69141e-66 0)
(2.9 -2.69211e-67 0)
(2.9 -1.25886e-68 0)
(2.9 -5.82247e-70 0)
(2.9 -2.66504e-71 0)
(2.9 -1.20773e-72 0)
(2.9 -5.42122e-74 0)
(2.9 -2.41136e-75 0)
(2.9 -1.06324e-76 0)
(2.9 -4.64905e-78 0)
(2.9 -2.01652e-79 0)
(2.9 -8.67928e-81 0)
(2.9 -3.70799e-82 0)
(2.9 -1.57288e-83 0)
(2.9 -6.9125e-85 0)
(2.9 -1.46026e-30 0)
(2.9 -7.79333e-31 0)
(2.9 -1.94075e-31 0)
(2.9 -3.31348e-32 0)
(2.9 -4.41747e-33 0)
(2.9 -4.90574e-34 0)
(2.9 -4.71002e-35 0)
(2.9 -3.99803e-36 0)
(2.9 -3.03793e-37 0)
(2.9 -2.0741e-38 0)
(2.9 -1.26299e-39 0)
(2.9 -6.66722e-41 0)
(2.9 -9.011e-35 0)
(2.9 -2.36615e-33 0)
(2.9 -6.39728e-33 0)
(2.9 -3.55168e-33 0)
(2.9 -1.1123e-33 0)
(2.9 -2.47768e-34 0)
(2.9 -4.35629e-35 0)
(2.9 -6.41107e-36 0)
(2.9 -8.19855e-37 0)
(2.9 -9.34818e-38 0)
(2.9 -9.68343e-39 0)
(2.9 -9.24244e-40 0)
(2.9 -8.21836e-41 0)
(2.9 -6.86815e-42 0)
(2.9 -5.43321e-43 0)
(2.9 -4.0926e-44 0)
(2.9 -2.94999e-45 0)
(2.9 -2.04335e-46 0)
(2.9 -1.36498e-47 0)
(2.9 -8.821e-49 0)
(2.9 -5.52963e-50 0)
(2.9 -3.37046e-51 0)
(2.9 -2.00173e-52 0)
(2.9 -1.16053e-53 0)
(2.9 -6.57892e-55 0)
(2.9 -3.65216e-56 0)
(2.9 -1.98803e-57 0)
(2.9 -1.06242e-58 0)
(2.9 -5.58019e-60 0)
(2.9 -2.88345e-61 0)
(2.9 -1.46718e-62 0)
(2.9 -7.35735e-64 0)
(2.9 -3.63884e-65 0)
(2.9 -1.77628e-66 0)
(2.9 -8.56353e-68 0)
(2.9 -4.07987e-69 0)
(2.9 -1.92192e-70 0)
(2.9 -8.9566e-72 0)
(2.9 -4.13126e-73 0)
(2.9 -1.88689e-74 0)
(2.9 -8.53728e-76 0)
(2.9 -3.82799e-77 0)
(2.9 -1.70162e-78 0)
(2.9 -7.5014e-80 0)
(2.9 -3.2806e-81 0)
(2.9 -1.42373e-82 0)
(2.9 -6.13337e-84 0)
(2.9 -2.73858e-85 0)
(2.9 -1.77287e-31 0)
(2.9 -1.02097e-31 0)
(2.9 -2.71034e-32 0)
(2.9 -4.911e-33 0)
(2.9 -6.92951e-34 0)
(2.9 -8.13118e-35 0)
(2.9 -8.24392e-36 0)
(2.9 -7.395e-37 0)
(2.9 -5.95427e-38 0)
(2.9 -4.3338e-39 0)
(2.9 -2.84931e-40 0)
(2.9 -1.67114e-41 0)
(2.9 -1.15347e-35 0)
(2.9 -3.03261e-34 0)
(2.9 -8.0588e-34 0)
(2.9 -4.64759e-34 0)
(2.9 -1.51646e-34 0)
(2.9 -3.51803e-35 0)
(2.9 -6.4348e-36 0)
(2.9 -9.83918e-37 0)
(2.9 -1.3056e-37 0)
(2.9 -1.54276e-38 0)
(2.9 -1.65415e-39 0)
(2.9 -1.63233e-40 0)
(2.9 -1.49905e-41 0)
(2.9 -1.29251e-42 0)
(2.9 -1.0539e-43 0)
(2.9 -8.17516e-45 0)
(2.9 -6.06316e-46 0)
(2.9 -4.31768e-47 0)
(2.9 -2.963e-48 0)
(2.9 -1.96565e-49 0)
(2.9 -1.26407e-50 0)
(2.9 -7.89885e-52 0)
(2.9 -4.80633e-53 0)
(2.9 -2.85324e-54 0)
(2.9 -1.65527e-55 0)
(2.9 -9.39863e-57 0)
(2.9 -5.23016e-58 0)
(2.9 -2.85598e-59 0)
(2.9 -1.53204e-60 0)
(2.9 -8.08169e-62 0)
(2.9 -4.1962e-63 0)
(2.9 -2.14635e-64 0)
(2.9 -1.08237e-65 0)
(2.9 -5.38514e-67 0)
(2.9 -2.64516e-68 0)
(2.9 -1.28353e-69 0)
(2.9 -6.15617e-71 0)
(2.9 -2.92008e-72 0)
(2.9 -1.37048e-73 0)
(2.9 -6.36719e-75 0)
(2.9 -2.92957e-76 0)
(2.9 -1.33542e-77 0)
(2.9 -6.03327e-79 0)
(2.9 -2.70249e-80 0)
(2.9 -1.20059e-81 0)
(2.9 -5.29155e-83 0)
(2.9 -2.31455e-84 0)
(2.9 -1.04974e-85 0)
(2.9 -2.15332e-32 0)
(2.9 -1.33252e-32 0)
(2.9 -3.75712e-33 0)
(2.9 -7.20061e-34 0)
(2.9 -1.07189e-34 0)
(2.9 -1.32471e-35 0)
(2.9 -1.41337e-36 0)
(2.9 -1.33439e-37 0)
(2.9 -1.13255e-38 0)
(2.9 -8.72118e-40 0)
(2.9 -6.11204e-41 0)
(2.9 -3.88083e-42 0)
(2.9 -1.47343e-36 0)
(2.9 -3.87863e-35 0)
(2.9 -1.01525e-34 0)
(2.9 -6.0694e-35 0)
(2.9 -2.05933e-35 0)
(2.9 -4.96673e-36 0)
(2.9 -9.43558e-37 0)
(2.9 -1.49677e-37 0)
(2.9 -2.05804e-38 0)
(2.9 -2.51701e-39 0)
(2.9 -2.79009e-40 0)
(2.9 -2.84348e-41 0)
(2.9 -2.69411e-42 0)
(2.9 -2.39431e-43 0)
(2.9 -2.01047e-44 0)
(2.9 -1.60465e-45 0)
(2.9 -1.22353e-46 0)
(2.9 -8.95096e-48 0)
(2.9 -6.30577e-49 0)
(2.9 -4.29145e-50 0)
(2.9 -2.82926e-51 0)
(2.9 -1.81136e-52 0)
(2.9 -1.12859e-53 0)
(2.9 -6.85642e-55 0)
(2.9 -4.0685e-56 0)
(2.9 -2.36163e-57 0)
(2.9 -1.34287e-58 0)
(2.9 -7.48929e-60 0)
(2.9 -4.10138e-61 0)
(2.9 -2.20775e-62 0)
(2.9 -1.16927e-63 0)
(2.9 -6.09815e-65 0)
(2.9 -3.13436e-66 0)
(2.9 -1.58886e-67 0)
(2.9 -7.94887e-69 0)
(2.9 -3.92717e-70 0)
(2.9 -1.91718e-71 0)
(2.9 -9.25314e-73 0)
(2.9 -4.41754e-74 0)
(2.9 -2.08708e-75 0)
(2.9 -9.76247e-77 0)
(2.9 -4.52292e-78 0)
(2.9 -2.07628e-79 0)
(2.9 -9.44754e-81 0)
(2.9 -4.26251e-82 0)
(2.9 -1.90751e-83 0)
(2.9 -8.46957e-85 0)
(2.9 -3.90095e-86 0)
(2.9 -2.61652e-33 0)
(2.9 -1.73341e-33 0)
(2.9 -5.17401e-34 0)
(2.9 -1.04571e-34 0)
(2.9 -1.63758e-35 0)
(2.9 -2.12553e-36 0)
(2.9 -2.37944e-37 0)
(2.9 -2.35657e-38 0)
(2.9 -2.09978e-39 0)
(2.9 -1.70131e-40 0)
(2.9 -1.26037e-41 0)
(2.9 -8.53686e-43 0)
(2.9 -1.87857e-37 0)
(2.9 -4.95114e-36 0)
(2.9 -1.27907e-35 0)
(2.9 -7.91153e-36 0)
(2.9 -2.78642e-36 0)
(2.9 -6.97529e-37 0)