/*--------------------------------*- C++ -*----------------------------------*\
| =========                 |                                                 |
| \\      /  F ield         | OpenFOAM: The Open Source CFD Toolbox           |
|  \\    /   O peration     | Version:  2412                                  |
|   \\  /    A nd           | Website:  www.openfoam.com                      |
|    \\/     M anipulation  |                                                 |
\*---------------------------------------------------------------------------*/
FoamFile
{
    version     2.0;
    format      ascii;
    arch        "LSB;label=32;scalar=64";
    class       volVectorField;
    location    "0.0550221";
    object      U;
}
// * * * * * * * * * * * * * * * * * * * * * * * * * * * * * * * * * * * * * //

dimensions      [0 1 -1 0 0 0 0];

internalField   nonuniform List<vector> 
100
(
(-9.49902 0 0)
(-7.63404 0 0)
(-1.50037 0 0)
(9.78495 0 0)
(20.8832 0 0)
(22.7317 0 0)
(7.72937 0 0)
(-9.56188 0 0)
(-20.0257 0 0)
(-14.0452 0 0)
(-3.38682 0 0)
(3.16288 0 0)
(5.03158 0 0)
(-0.100377 0 0)
(-4.20927 0 0)
(1.39245 0 0)
(5.04559 0 0)
(2.9561 0 0)
(-4.26385 0 0)
(-5.78112 0 0)
(0.347249 0 0)
(-86.2437 0 0)
(-222.931 0 0)
(-255.08 0 0)
(-258.837 0 0)
(-256.794 0 0)
(-254.91 0 0)
(-250.639 0 0)
(-230.512 0 0)
(-198.454 0 0)
(-185.762 0 0)
(-182.935 0 0)
(-182.134 0 0)
(-182.071 0 0)
(-181.287 0 0)
(-179.975 0 0)
(-176.028 0 0)
(-170.691 0 0)
(-167.514 0 0)
(-166.396 0 0)
(-165.351 0 0)
(-165.044 0 0)
(-165.894 0 0)
(-167.219 0 0)
(-167.173 0 0)
(-166.368 0 0)
(-165.155 0 0)
(-161.98 0 0)
(-152.053 0 0)
(-140.252 0 0)
(-134.532 0 0)
(-132.261 0 0)
(-131.451 0 0)
(-130.68 0 0)
(-130.221 0 0)
(-130.324 0 0)
(-130.269 0 0)
(-129.545 0 0)
(-127.405 0 0)
(-122.469 0 0)
(-115.612 0 0)
(-111.062 0 0)
(-108.092 0 0)
(-105.817 0 0)
(-103.653 0 0)
(-101.108 0 0)
(-98.0883 0 0)
(-94.9178 0 0)
(-91.7517 0 0)
(-88.7552 0 0)
(-85.7809 0 0)
(-82.7243 0 0)
(-79.9039 0 0)
(-76.9954 0 0)
(-74.5807 0 0)
(-71.9374 0 0)
(-69.4192 0 0)
(-66.2531 0 0)
(-62.854 0 0)
(-59.4166 0 0)
(-56.2736 0 0)
(-53.8476 0 0)
(-50.5504 0 0)
(-48.4646 0 0)
(-45.493 0 0)
(-42.6788 0 0)
(-39.9418 0 0)
(-36.8609 0 0)
(-34.3756 0 0)
(-30.9551 0 0)
(-28.1752 0 0)
(-24.5105 0 0)
(-21.4253 0 0)
(-18.0934 0 0)
(-15.4161 0 0)
(-12.9889 0 0)
(-10.4693 0 0)
(-8.15009 0 0)
(-4.99433 0 0)
(-1.90317 0 0)
)
;

boundaryField
{
    sides
    {
        type            fixedValue;
        value           uniform (0 0 0);
    }
    empty
    {
        type            empty;
    }
}


// ************************************************************************* //
