/*--------------------------------*- C++ -*----------------------------------*\
| =========                 |                                                 |
| \\      /  F ield         | OpenFOAM: The Open Source CFD Toolbox           |
|  \\    /   O peration     | Version:  2412                                  |
|   \\  /    A nd           | Website:  www.openfoam.com                      |
|    \\/     M anipulation  |                                                 |
\*---------------------------------------------------------------------------*/
FoamFile
{
    version     2.0;
    format      ascii;
    arch        "LSB;label=32;scalar=64";
    class       volVectorField;
    location    "8.34346e-05";
    object      U;
}
// * * * * * * * * * * * * * * * * * * * * * * * * * * * * * * * * * * * * * //

dimensions      [0 1 -1 0 0 0 0];

internalField   nonuniform List<vector> 
1800
(
(2.9 -5.32428e-14 0)
(2.9 1.50958e-14 0)
(2.9 5.57984e-14 0)
(2.9 -6.88583e-14 0)
(2.9 -2.95088e-14 0)
(2.9 -1.03582e-13 0)
(2.9 -9.37217e-14 0)
(2.9 -8.0899e-14 0)
(2.9 -4.7901e-14 0)
(2.9 -3.12749e-14 0)
(2.9 -1.91214e-14 0)
(2.9 -6.14025e-14 0)
(2.9 -8.51184e-14 0)
(2.9 -5.86612e-14 0)
(2.9 -9.10453e-14 0)
(2.9 -1.33426e-14 0)
(2.9 -1.93719e-14 0)
(2.9 -2.87663e-14 0)
(2.9 -4.13272e-14 0)
(2.9 -2.76014e-14 0)
(2.9 -4.2985e-14 0)
(2.9 -2.76404e-14 0)
(2.9 -2.55176e-14 0)
(2.9 1.14485e-14 0)
(2.9 -3.87327e-15 0)
(2.9 -8.37324e-14 0)
(2.9 -6.62785e-14 0)
(2.9 -3.32696e-14 0)
(2.9 3.21741e-14 0)
(2.9 6.44339e-14 0)
(2.9 -1.45237e-14 0)
(2.9 -3.86434e-15 0)
(2.9 -8.68354e-14 0)
(2.9 -6.81802e-14 0)
(2.9 -1.64749e-14 0)
(2.9 2.54809e-14 0)
(2.9 2.69269e-15 0)
(2.9 1.74309e-14 0)
(2.9 1.04549e-14 0)
(2.9 -1.95334e-14 0)
(2.9 -5.04017e-15 0)
(2.9 4.1118e-14 0)
(2.9 5.29263e-15 0)
(2.9 1.0092e-14 0)
(2.9 -3.27425e-14 0)
(2.9 -4.7113e-14 0)
(2.9 7.95982e-15 0)
(2.9 5.82332e-14 0)
(2.9 4.36336e-14 0)
(2.9 5.1317e-14 0)
(2.9 3.03542e-14 0)
(2.9 -1.87984e-14 0)
(2.9 6.57586e-17 0)
(2.9 -3.60348e-14 0)
(2.9 2.29437e-14 0)
(2.9 3.91137e-14 0)
(2.9 -3.94254e-14 0)
(2.9 -3.46848e-14 0)
(2.9 -5.85361e-14 0)
(2.9 -1.04485e-13 0)
(2.9 -1.29416e-13 0)
(2.9 1.15617e-14 0)
(2.9 5.96243e-14 0)
(2.9 -6.25043e-14 0)
(2.9 -6.23237e-14 0)
(2.9 -2.15883e-13 0)
(2.9 -1.88613e-13 0)
(2.9 -1.49934e-13 0)
(2.9 -5.25524e-14 0)
(2.9 -2.99671e-14 0)
(2.9 -2.36969e-14 0)
(2.9 -1.47056e-13 0)
(2.9 -1.27638e-13 0)
(2.9 -1.13252e-13 0)
(2.9 -7.22749e-14 0)
(2.9 3.1333e-17 0)
(2.9 -6.30366e-14 0)
(2.9 -7.59694e-14 0)
(2.9 -8.38428e-14 0)
(2.9 -5.81304e-14 0)
(2.9 -1.01359e-13 0)
(2.9 -1.89414e-14 0)
(2.9 3.52843e-14 0)
(2.9 4.0655e-14 0)
(2.9 -8.62106e-14 0)
(2.9 -1.8739e-13 0)
(2.9 -1.48029e-13 0)
(2.9 -1.19157e-13 0)
(2.9 1.82499e-14 0)
(2.9 9.07549e-14 0)
(2.9 -5.72471e-14 0)
(2.9 -4.98054e-15 0)
(2.9 -1.22411e-13 0)
(2.9 -1.29571e-13 0)
(2.9 -6.78554e-14 0)
(2.9 -3.01314e-14 0)
(2.9 4.33148e-18 0)
(2.9 5.88714e-14 0)
(2.9 -1.1394e-14 0)
(2.9 -7.52488e-14 0)
(2.9 -1.67116e-14 0)
(2.9 5.94397e-14 0)
(2.9 1.12041e-14 0)
(2.9 1.27986e-15 0)
(2.9 -7.16662e-14 0)
(2.9 -1.14572e-13 0)
(2.9 2.15479e-14 0)
(2.9 9.12466e-14 0)
(2.9 1.02519e-13 0)
(2.9 1.33566e-13 0)
(2.9 1.3624e-14 0)
(2.9 -7.89675e-14 0)
(2.9 -3.89864e-14 0)
(2.9 -1.04736e-13 0)
(2.9 1.47408e-14 0)
(2.9 5.15444e-14 0)
(2.9 -5.52715e-14 0)
(2.9 -5.2481e-14 0)
(2.9 -1.27273e-13 0)
(2.9 -1.99945e-13 0)
(2.9 -5.52193e-14 0)
(2.9 -1.45958e-14 0)
(2.9 1.36474e-14 0)
(2.9 4.04223e-15 0)
(2.9 -6.07189e-15 0)
(2.9 -1.34893e-13 0)
(2.9 -1.51906e-13 0)
(2.9 -7.1407e-14 0)
(2.9 1.96653e-14 0)
(2.9 -9.25405e-14 0)
(2.9 -8.22196e-14 0)
(2.9 -1.17474e-13 0)
(2.9 -8.625e-14 0)
(2.9 -7.99813e-14 0)
(2.9 -4.65056e-14 0)
(2.9 5.70253e-14 0)
(2.9 1.50811e-15 0)
(2.9 -6.9951e-14 0)
(2.9 -2.68649e-14 0)
(2.9 -6.04144e-14 0)
(2.9 -9.32203e-15 0)
(2.9 3.65537e-14 0)
(2.9 9.20832e-14 0)
(2.9 6.53686e-14 0)
(2.9 -1.12662e-13 0)
(2.9 -2.0265e-13 0)
(2.9 -1.12795e-13 0)
(2.9 -6.94886e-14 0)
(2.9 -1.50152e-14 0)
(2.9 -8.13038e-15 0)
(2.9 -4.99215e-14 0)
(2.9 -6.82481e-14 0)
(2.9 -1.20113e-13 0)
(2.9 -1.285e-13 0)
(2.9 -7.03127e-14 0)
(2.9 -6.7857e-14 0)
(2.9 2.19573e-14 0)
(2.9 2.79866e-14 0)
(2.9 -8.37861e-14 0)
(2.9 -1.34005e-13 0)
(2.9 -3.5279e-14 0)
(2.9 -1.11604e-14 0)
(2.9 3.11164e-14 0)
(2.9 4.67835e-15 0)
(2.9 -4.60489e-14 0)
(2.9 -6.00282e-14 0)
(2.9 -1.27364e-14 0)
(2.9 4.41305e-14 0)
(2.9 4.46631e-14 0)
(2.9 8.72853e-15 0)
(2.9 -3.93451e-14 0)
(2.9 -2.78725e-14 0)
(2.9 -5.51217e-14 0)
(2.9 -7.66912e-14 0)
(2.9 -1.58649e-14 0)
(2.9 -7.68063e-15 0)
(2.9 -3.76977e-14 0)
(2.9 -3.59717e-14 0)
(2.9 -1.2788e-13 0)
(2.9 -1.38792e-13 0)
(2.9 2.1462e-16 0)
(2.9 -6.95942e-14 0)
(2.9 -7.73196e-15 0)
(2.9 -5.41895e-14 0)
(2.9 -3.13886e-14 0)
(2.9 -4.7767e-14 0)
(2.9 -9.11127e-14 0)
(2.9 -5.68817e-14 0)
(2.9 -2.57701e-14 0)
(2.9 -9.80156e-14 0)
(2.9 -1.01451e-13 0)
(2.9 -1.30394e-13 0)
(2.9 -6.10067e-14 0)
(2.9 -8.0556e-14 0)
(2.9 -5.6279e-14 0)
(2.9 -3.74069e-14 0)
(2.9 -4.03596e-14 0)
(2.9 -2.04083e-14 0)
(2.9 4.19057e-14 0)
(2.9 7.2181e-15 0)
(2.9 7.37525e-14 0)
(2.9 6.05757e-14 0)
(2.9 -4.64535e-15 0)
(2.9 -1.59518e-14 0)
(2.9 -3.88457e-14 0)
(2.9 -9.9742e-14 0)
(2.9 -8.15905e-15 0)
(2.9 -1.94924e-14 0)
(2.9 3.96519e-15 0)
(2.9 -1.69229e-15 0)
(2.9 7.0757e-15 0)
(2.9 -9.19512e-15 0)
(2.9 -6.71404e-14 0)
(2.9 -5.39777e-14 0)
(2.9 -4.32553e-14 0)
(2.9 4.73295e-15 0)
(2.9 3.29481e-14 0)
(2.9 1.51283e-14 0)
(2.9 -5.31482e-14 0)
(2.9 -1.05551e-13 0)
(2.9 -4.85287e-14 0)
(2.9 -6.23906e-14 0)
(2.9 -3.98775e-14 0)
(2.9 -4.11522e-14 0)
(2.9 -5.2113e-14 0)
(2.9 -8.00892e-14 0)
(2.9 -1.86731e-14 0)
(2.9 5.07885e-14 0)
(2.9 -5.70502e-14 0)
(2.9 -9.86533e-14 0)
(2.9 -1.02249e-13 0)
(2.9 6.80327e-15 0)
(2.9 -1.35371e-14 0)
(2.9 -7.67347e-15 0)
(2.9 -2.70755e-14 0)
(2.9 -2.49119e-14 0)
(2.9 -1.0393e-15 0)
(2.9 -5.99695e-14 0)
(2.9 2.3857e-15 0)
(2.9 -9.68766e-16 0)
(2.9 -2.58946e-14 0)
(2.9 -1.28147e-13 0)
(2.9 -2.18405e-14 0)
(2.9 -9.38717e-14 0)
(2.9 -2.27861e-14 0)
(2.9 -1.87841e-14 0)
(2.9 -7.35769e-14 0)
(2.9 -5.41053e-14 0)
(2.9 -2.72513e-14 0)
(2.9 -7.18481e-14 0)
(2.9 -1.22196e-13 0)
(2.9 -1.18818e-13 0)
(2.9 -2.37979e-14 0)
(2.9 1.77466e-15 0)
(2.9 -3.77876e-14 0)
(2.9 -1.09913e-13 0)
(2.9 -7.38007e-14 0)
(2.9 3.03527e-15 0)
(2.9 1.02346e-13 0)
(2.9 7.80007e-14 0)
(2.9 7.28385e-14 0)
(2.9 2.28051e-14 0)
(2.9 -9.52908e-14 0)
(2.9 -8.9738e-14 0)
(2.9 -2.47883e-14 0)
(2.9 -2.83278e-14 0)
(2.9 4.85489e-14 0)
(2.9 -2.58748e-14 0)
(2.9 3.80973e-14 0)
(2.9 1.35868e-14 0)
(2.9 1.86603e-15 0)
(2.9 5.38435e-14 0)
(2.9 7.33465e-15 0)
(2.9 3.97762e-14 0)
(2.9 -3.85368e-14 0)
(2.9 -2.99818e-16 0)
(2.9 3.69193e-14 0)
(2.9 -1.0714e-14 0)
(2.9 -4.50361e-14 0)
(2.9 -9.15396e-14 0)
(2.9 -6.89443e-14 0)
(2.9 -8.1803e-14 0)
(2.9 -1.09825e-13 0)
(2.9 -6.90939e-14 0)
(2.9 -3.71212e-14 0)
(2.9 -8.72287e-14 0)
(2.9 -2.46722e-14 0)
(2.9 -1.42314e-15 0)
(2.9 -7.23248e-14 0)
(2.9 -7.02392e-14 0)
(2.9 -3.31205e-14 0)
(2.9 5.50768e-14 0)
(2.9 -1.15529e-14 0)
(2.9 -2.66908e-14 0)
(2.9 -4.83021e-14 0)
(2.9 -3.20985e-14 0)
(2.9 2.66792e-14 0)
(2.9 1.27746e-14 0)
(2.9 3.71441e-14 0)
(2.9 9.0548e-14 0)
(2.9 -7.55118e-14 0)
(2.9 -1.09265e-13 0)
(2.9 -9.34443e-14 0)
(2.9 -7.96078e-14 0)
(2.9 3.56028e-14 0)
(2.9 1.04592e-14 0)
(2.9 4.26604e-14 0)
(2.9 2.94868e-14 0)
(2.9 -8.37064e-14 0)
(2.9 -1.0337e-13 0)
(2.9 -1.20428e-13 0)
(2.9 -7.28331e-14 0)
(2.9 -9.35693e-14 0)
(2.9 -3.29876e-15 0)
(2.9 -1.63678e-14 0)
(2.9 -1.08329e-13 0)
(2.9 -4.44001e-14 0)
(2.9 1.0889e-16 0)
(2.9 4.55543e-14 0)
(2.9 8.88491e-15 0)
(2.9 -4.87676e-14 0)
(2.9 -6.63325e-14 0)
(2.9 -5.85991e-14 0)
(2.9 -5.89929e-14 0)
(2.9 -2.01417e-14 0)
(2.9 2.59202e-14 0)
(2.9 6.72245e-14 0)
(2.9 1.13463e-15 0)
(2.9 4.69929e-15 0)
(2.9 1.07472e-14 0)
(2.9 -5.06417e-14 0)
(2.9 7.9388e-15 0)
(2.9 2.60634e-14 0)
(2.9 3.91704e-15 0)
(2.9 -8.39328e-14 0)
(2.9 -1.18117e-13 0)
(2.9 -9.79096e-14 0)
(2.9 -7.60936e-14 0)
(2.9 -1.31146e-13 0)
(2.9 -2.78236e-14 0)
(2.9 -1.09489e-13 0)
(2.9 -4.34606e-14 0)
(2.9 -7.16651e-14 0)
(2.9 -2.23216e-15 0)
(2.9 1.25761e-14 0)
(2.9 1.21749e-14 0)
(2.9 -4.15525e-14 0)
(2.9 -7.40315e-14 0)
(2.9 -1.17503e-13 0)
(2.9 -1.8856e-14 0)
(2.9 1.95392e-14 0)
(2.9 -6.41117e-15 0)
(2.9 -5.04558e-14 0)
(2.9 -7.90359e-14 0)
(2.9 -7.76411e-14 0)
(2.9 -4.37595e-14 0)
(2.9 -1.47584e-16 0)
(2.9 4.9813e-14 0)
(2.9 -1.93934e-14 0)
(2.9 3.14096e-14 0)
(2.9 -1.53176e-14 0)
(2.9 -2.90763e-14 0)
(2.9 -1.49123e-13 0)
(2.9 -4.47615e-14 0)
(2.9 8.46138e-14 0)
(2.9 3.68058e-14 0)
(2.9 1.02754e-13 0)
(2.9 7.48535e-14 0)
(2.9 -6.39201e-14 0)
(2.9 -8.50153e-14 0)
(2.9 -8.13577e-14 0)
(2.9 -6.84902e-14 0)
(2.9 -1.07188e-13 0)
(2.9 -2.6323e-14 0)
(2.9 6.73559e-15 0)
(2.9 -5.61944e-14 0)
(2.9 -2.60516e-14 0)
(2.9 -9.95843e-15 0)
(2.9 -4.06652e-14 0)
(2.9 -4.38897e-14 0)
(2.9 -1.31046e-13 0)
(2.9 -9.08651e-14 0)
(2.9 3.83562e-15 0)
(2.9 -2.78657e-14 0)
(2.9 -5.43899e-14 0)
(2.9 2.78765e-14 0)
(2.9 6.33592e-14 0)
(2.9 -1.0732e-14 0)
(2.9 3.21338e-14 0)
(2.9 6.52877e-15 0)
(2.9 -7.6698e-14 0)
(2.9 -5.04097e-15 0)
(2.9 -1.14693e-14 0)
(2.9 -2.58188e-14 0)
(2.9 -1.29784e-13 0)
(2.9 -1.54745e-13 0)
(2.9 -1.66129e-13 0)
(2.9 -7.57814e-14 0)
(2.9 -1.48913e-13 0)
(2.9 -8.66288e-14 0)
(2.9 -9.60985e-14 0)
(2.9 3.5359e-15 0)
(2.9 1.17753e-15 0)
(2.9 8.45482e-14 0)
(2.9 4.20453e-14 0)
(2.9 -1.13109e-14 0)
(2.9 -7.95009e-14 0)
(2.9 -6.9347e-14 0)
(2.9 -1.34273e-13 0)
(2.9 -4.64985e-14 0)
(2.9 -3.4567e-15 0)
(2.9 -9.61366e-14 0)
(2.9 -6.83599e-14 0)
(2.9 -1.23879e-13 0)
(2.9 -1.19755e-13 0)
(2.9 -6.51355e-14 0)
(2.9 -2.41219e-14 0)
(2.9 -3.17907e-14 0)
(2.9 -5.25312e-14 0)
(2.9 -2.3498e-14 0)
(2.9 -4.46472e-15 0)
(2.9 5.20256e-14 0)
(2.9 -1.11046e-13 0)
(2.9 -1.94008e-14 0)
(2.9 -9.45549e-15 0)
(2.9 1.2878e-13 0)
(2.9 1.59059e-13 0)
(2.9 6.19867e-14 0)
(2.9 1.67607e-15 0)
(2.9 -6.52897e-14 0)
(2.9 -4.0493e-14 0)
(2.9 -3.62025e-14 0)
(2.9 -1.20308e-13 0)
(2.9 -1.30878e-13 0)
(2.9 -4.33317e-14 0)
(2.9 -1.76541e-15 0)
(2.9 4.8816e-14 0)
(2.9 6.43143e-15 0)
(2.9 -8.10115e-14 0)
(2.9 -1.0717e-13 0)
(2.9 -6.4515e-14 0)
(2.9 -2.84183e-14 0)
(2.9 5.78742e-14 0)
(2.9 -2.89783e-14 0)
(2.9 6.64145e-16 0)
(2.9 3.70357e-14 0)
(2.9 6.962e-14 0)
(2.9 5.97193e-14 0)
(2.9 6.32501e-14 0)
(2.9 -4.48322e-15 0)
(2.9 -2.95289e-15 0)
(2.9 4.12974e-14 0)
(2.9 3.01793e-14 0)
(2.9 -1.59031e-14 0)
(2.9 -6.68882e-14 0)
(2.9 -6.67411e-14 0)
(2.9 -4.24341e-14 0)
(2.9 1.32122e-14 0)
(2.9 -5.37613e-14 0)
(2.9 -3.68143e-14 0)
(2.9 -4.78372e-14 0)
(2.9 2.17398e-14 0)
(2.9 4.80468e-14 0)
(2.9 8.58899e-14 0)
(2.9 3.73999e-14 0)
(2.9 -3.72169e-14 0)
(2.9 -7.40878e-14 0)
(2.9 -3.97881e-14 0)
(2.9 -7.1731e-14 0)
(2.9 -6.57238e-14 0)
(2.9 1.07745e-14 0)
(2.9 -7.40237e-14 0)
(2.9 -8.05905e-14 0)
(2.9 -1.24934e-13 0)
(2.9 -6.51841e-14 0)
(2.9 -3.4089e-14 0)
(2.9 -4.49278e-14 0)
(2.9 -3.80216e-14 0)
(2.9 -4.39545e-14 0)
(2.9 -4.56724e-14 0)
(2.9 9.56438e-15 0)
(2.9 6.06083e-14 0)
(2.9 9.6544e-15 0)
(2.9 -7.45064e-15 0)
(2.9 -5.3781e-14 0)
(2.9 3.15063e-14 0)
(2.9 4.58474e-14 0)
(2.9 -1.96925e-14 0)
(2.9 5.36272e-14 0)
(2.9 1.97295e-14 0)
(2.9 -1.72176e-14 0)
(2.9 -9.15062e-14 0)
(2.9 -1.32725e-13 0)
(2.9 -1.15082e-13 0)
(2.9 -7.97211e-14 0)
(2.9 -2.36162e-14 0)
(2.9 3.92165e-14 0)
(2.9 5.7056e-14 0)
(2.9 -7.69047e-14 0)
(2.9 -1.37358e-13 0)
(2.9 1.6278e-15 0)
(2.9 6.59918e-14 0)
(2.9 1.09037e-14 0)
(2.9 -1.51935e-14 0)
(2.9 5.41833e-14 0)
(2.9 3.26376e-14 0)
(2.9 1.1543e-13 0)
(2.9 1.15322e-13 0)
(2.9 8.16625e-14 0)
(2.9 2.61709e-14 0)
(2.9 6.74326e-14 0)
(2.9 1.23569e-14 0)
(2.9 2.98653e-14 0)
(2.9 -1.56491e-14 0)
(2.9 -2.21465e-14 0)
(2.9 7.34137e-16 0)
(2.9 3.97779e-14 0)
(2.9 3.74198e-14 0)
(2.9 6.66974e-14 0)
(2.9 4.51332e-14 0)
(2.9 1.93493e-14 0)
(2.9 6.69706e-14 0)
(2.9 9.93928e-14 0)
(2.9 2.63085e-14 0)
(2.9 3.44178e-14 0)
(2.9 5.32134e-14 0)
(2.9 -3.1802e-14 0)
(2.9 -1.40717e-14 0)
(2.9 6.49487e-14 0)
(2.9 1.32952e-14 0)
(2.9 2.59162e-14 0)
(2.9 3.65708e-14 0)
(2.9 -6.35325e-14 0)
(2.9 -7.34589e-14 0)
(2.9 -1.09116e-14 0)
(2.9 -4.43168e-14 0)
(2.9 -3.20381e-14 0)
(2.9 -9.54529e-15 0)
(2.9 -3.10828e-14 0)
(2.9 -7.57933e-14 0)
(2.9 -1.8817e-14 0)
(2.9 1.11012e-14 0)
(2.9 6.1421e-14 0)
(2.9 5.29181e-14 0)
(2.9 2.45792e-15 0)
(2.9 -4.89319e-14 0)
(2.9 -9.04763e-14 0)
(2.9 -2.26994e-15 0)
(2.9 7.67372e-14 0)
(2.9 1.97441e-14 0)
(2.9 1.08e-14 0)
(2.9 -7.23771e-14 0)
(2.9 -8.01253e-14 0)
(2.9 -3.69374e-14 0)
(2.9 -2.47373e-14 0)
(2.9 8.18917e-14 0)
(2.9 4.61321e-14 0)
(2.9 1.11683e-13 0)
(2.9 1.49084e-14 0)
(2.9 -6.70644e-14 0)
(2.9 -4.8777e-14 0)
(2.9 3.68014e-14 0)
(2.9 -3.37399e-14 0)
(2.9 -2.51064e-14 0)
(2.9 -2.49439e-14 0)
(2.9 2.9018e-14 0)
(2.9 7.38705e-14 0)
(2.9 1.08484e-13 0)
(2.9 6.09591e-14 0)
(2.9 3.62349e-14 0)
(2.9 2.05466e-14 0)
(2.9 -4.44041e-14 0)
(2.9 5.03231e-14 0)
(2.9 -3.07459e-14 0)
(2.9 5.20871e-14 0)
(2.9 5.19609e-14 0)
(2.9 8.15969e-14 0)
(2.9 1.44577e-14 0)
(2.9 2.83389e-14 0)
(2.9 8.67065e-14 0)
(2.9 9.20206e-14 0)
(2.9 7.86863e-14 0)
(2.9 9.15021e-14 0)
(2.9 2.73397e-14 0)
(2.9 2.44305e-14 0)
(2.9 8.46445e-14 0)
(2.9 -6.0834e-15 0)
(2.9 -5.80217e-15 0)
(2.9 9.30888e-14 0)
(2.9 1.09212e-13 0)
(2.9 6.05736e-15 0)
(2.9 7.78433e-14 0)
(2.9 2.05966e-15 0)
(2.9 -2.18424e-14 0)
(2.9 3.90901e-14 0)
(2.9 -2.65611e-14 0)
(2.9 -5.75886e-14 0)
(2.9 -6.87244e-14 0)
(2.9 -1.71409e-14 0)
(2.9 6.25351e-15 0)
(2.9 -4.1687e-14 0)
(2.9 -1.31584e-14 0)
(2.9 7.5302e-14 0)
(2.9 5.10646e-14 0)
(2.9 -5.95472e-14 0)
(2.9 -9.44463e-14 0)
(2.9 -3.87568e-14 0)
(2.9 6.85484e-14 0)
(2.9 7.18038e-14 0)
(2.9 1.05791e-14 0)
(2.9 4.03263e-14 0)
(2.9 1.56809e-14 0)
(2.9 2.05332e-14 0)
(2.9 3.43102e-14 0)
(2.9 1.58041e-14 0)
(2.9 1.22658e-13 0)
(2.9 2.3302e-14 0)
(2.9 7.31217e-14 0)
(2.9 1.07873e-13 0)
(2.9 -6.98149e-15 0)
(2.9 -6.79399e-14 0)
(2.9 6.08637e-15 0)
(2.9 -5.41938e-15 0)
(2.9 1.84331e-14 0)
(2.9 -5.3734e-14 0)
(2.9 -3.71887e-14 0)
(2.9 -2.60273e-14 0)
(2.9 3.50632e-14 0)
(2.9 -2.1704e-14 0)
(2.9 -1.68143e-14 0)
(2.9 -1.65084e-14 0)
(2.9 -1.33982e-13 0)
(2.9 -3.53757e-14 0)
(2.9 -3.43676e-14 0)
(2.9 6.14702e-14 0)
(2.9 1.08752e-13 0)
(2.9 7.68298e-14 0)
(2.9 -8.28209e-15 0)
(2.9 -4.08704e-15 0)
(2.9 5.06583e-14 0)
(2.9 1.13458e-13 0)
(2.9 4.40831e-14 0)
(2.9 7.78639e-14 0)
(2.9 2.0937e-14 0)
(2.9 -1.48407e-14 0)
(2.9 4.52468e-14 0)
(2.9 -3.18804e-14 0)
(2.9 2.2444e-15 0)
(2.9 4.38597e-14 0)
(2.9 4.4138e-14 0)
(2.9 -3.45758e-14 0)
(2.9 2.33322e-14 0)
(2.9 2.05907e-15 0)
(2.9 3.39433e-14 0)
(2.9 1.16772e-14 0)
(2.9 2.10599e-14 0)
(2.9 -2.36383e-14 0)
(2.9 -1.2092e-13 0)
(2.9 5.8143e-14 0)
(2.9 1.04692e-13 0)
(2.9 -7.9141e-15 0)
(2.9 2.8872e-14 0)
(2.9 2.06012e-14 0)
(2.9 -2.84594e-14 0)
(2.9 -2.62918e-14 0)
(2.9 -1.31856e-13 0)
(2.9 -2.88614e-14 0)
(2.9 7.97987e-14 0)
(2.9 1.05877e-13 0)
(2.9 2.43274e-14 0)
(2.9 6.52906e-14 0)
(2.9 6.31099e-14 0)
(2.9 7.25804e-14 0)
(2.9 -1.49038e-14 0)
(2.9 -1.57075e-14 0)
(2.9 6.23951e-14 0)
(2.9 -1.43919e-14 0)
(2.9 -1.15619e-14 0)
(2.9 3.02758e-14 0)
(2.9 2.69771e-14 0)
(2.9 -2.43709e-14 0)
(2.9 -3.34118e-14 0)
(2.9 -2.01794e-14 0)
(2.9 2.7245e-15 0)
(2.9 -4.92546e-14 0)
(2.9 -3.10088e-14 0)
(2.9 -7.64971e-14 0)
(2.9 -1.75648e-14 0)
(2.9 -3.5247e-14 0)
(2.9 -4.48842e-14 0)
(2.9 6.68826e-15 0)
(2.9 -6.32746e-14 0)
(2.9 -9.03582e-14 0)
(2.9 -1.62641e-15 0)
(2.9 6.25242e-14 0)
(2.9 8.42421e-14 0)
(2.9 1.22933e-14 0)
(2.9 3.38665e-14 0)
(2.9 4.39221e-14 0)
(2.9 3.16007e-15 0)
(2.9 9.71954e-14 0)
(2.9 -1.48123e-14 0)
(2.9 7.54215e-15 0)
(2.9 1.38602e-14 0)
(2.9 1.78439e-14 0)
(2.9 -4.42748e-14 0)
(2.9 4.79551e-15 0)
(2.9 -3.69977e-14 0)
(2.9 -5.7798e-14 0)
(2.9 -1.47346e-14 0)
(2.9 -5.92213e-14 0)
(2.9 -3.67653e-14 0)
(2.9 1.65284e-14 0)
(2.9 4.80983e-14 0)
(2.9 9.17927e-15 0)
(2.9 8.9345e-15 0)
(2.9 -3.53479e-14 0)
(2.9 -4.81391e-14 0)
(2.9 5.02469e-14 0)
(2.9 1.29633e-13 0)
(2.9 2.89516e-14 0)
(2.9 -1.03241e-15 0)
(2.9 -3.47891e-14 0)
(2.9 4.19518e-14 0)
(2.9 -8.23339e-15 0)
(2.9 -5.49143e-15 0)
(2.9 -1.46817e-14 0)
(2.9 5.31075e-15 0)
(2.9 1.74232e-15 0)
(2.9 4.0129e-15 0)
(2.9 7.17452e-14 0)
(2.9 3.78512e-14 0)
(2.9 6.90634e-14 0)
(2.9 2.94795e-14 0)
(2.9 1.73452e-14 0)
(2.9 -8.60181e-15 0)
(2.9 -1.2209e-14 0)
(2.9 -3.06815e-14 0)
(2.9 -2.22911e-14 0)
(2.9 7.75802e-14 0)
(2.9 2.6459e-14 0)
(2.9 -2.29178e-14 0)
(2.9 -2.64659e-15 0)
(2.9 -3.41902e-14 0)
(2.9 -4.6791e-14 0)
(2.9 2.92504e-15 0)
(2.9 -3.21059e-14 0)
(2.9 -8.97421e-14 0)
(2.9 -4.65955e-14 0)
(2.9 4.16301e-14 0)
(2.9 2.51429e-14 0)
(2.9 -4.54195e-15 0)
(2.9 -3.50364e-15 0)
(2.9 3.19535e-14 0)
(2.9 5.44583e-14 0)
(2.9 5.18542e-14 0)
(2.9 2.54094e-14 0)
(2.9 2.87666e-14 0)
(2.9 6.87575e-14 0)
(2.9 3.39909e-14 0)
(2.9 4.55425e-14 0)
(2.9 -2.2982e-14 0)
(2.9 1.54636e-14 0)
(2.9 -1.43272e-14 0)
(2.9 -1.46007e-14 0)
(2.9 1.91405e-14 0)
(2.9 4.15498e-14 0)
(2.9 -5.13761e-14 0)
(2.9 -6.22936e-14 0)
(2.9 -1.11575e-14 0)
(2.9 -1.97495e-14 0)
(2.9 -3.28012e-14 0)
(2.9 6.05042e-14 0)
(2.9 6.05454e-14 0)
(2.9 6.46419e-14 0)
(2.9 3.36405e-14 0)
(2.9 -3.40063e-14 0)
(2.9 2.40806e-14 0)
(2.9 4.83092e-14 0)
(2.9 9.77313e-14 0)
(2.9 -5.59888e-14 0)
(2.9 -6.86941e-14 0)
(2.9 -2.512e-16 0)
(2.9 7.63746e-14 0)
(2.9 1.2618e-14 0)
(2.9 1.34981e-14 0)
(2.9 3.61357e-14 0)
(2.9 -4.44939e-14 0)
(2.9 -6.15036e-14 0)
(2.9 6.9439e-14 0)
(2.9 1.15364e-13 0)
(2.9 8.81618e-14 0)
(2.9 1.20292e-13 0)
(2.9 1.02129e-13 0)
(2.9 -6.73924e-15 0)
(2.9 -1.29093e-13 0)
(2.9 -1.50846e-14 0)
(2.9 1.25142e-14 0)
(2.9 1.41056e-14 0)
(2.9 8.01921e-14 0)
(2.9 8.62575e-14 0)
(2.9 4.66526e-14 0)
(2.9 3.75816e-14 0)
(2.9 8.61655e-16 0)
(2.9 6.92516e-15 0)
(2.9 3.25922e-15 0)
(2.9 -9.66316e-14 0)
(2.9 -1.68742e-13 0)
(2.9 -5.92705e-14 0)
(2.9 8.26421e-14 0)
(2.9 6.52732e-14 0)
(2.9 5.74934e-14 0)
(2.9 7.13892e-14 0)
(2.9 8.22902e-14 0)
(2.9 2.991e-14 0)
(2.9 8.39106e-14 0)
(2.9 5.44216e-14 0)
(2.9 -2.71492e-14 0)
(2.9 8.09264e-14 0)
(2.9 3.28045e-14 0)
(2.9 3.8685e-14 0)
(2.9 -6.38825e-15 0)
(2.9 -3.65207e-14 0)
(2.9 -4.93197e-14 0)
(2.9 -3.32175e-14 0)
(2.9 8.54193e-14 0)
(2.9 1.01014e-13 0)
(2.9 -2.07684e-14 0)
(2.9 2.51409e-15 0)
(2.9 -1.41841e-14 0)
(2.9 2.586e-14 0)
(2.9 4.07931e-14 0)
(2.9 4.97818e-14 0)
(2.9 7.87404e-14 0)
(2.9 8.82828e-14 0)
(2.9 1.04504e-14 0)
(2.9 1.94306e-15 0)
(2.9 1.23682e-13 0)
(2.9 1.0167e-13 0)
(2.9 1.15967e-13 0)
(2.9 -1.33101e-13 0)
(2.9 -1.42379e-13 0)
(2.9 -2.91035e-14 0)
(2.9 3.64225e-14 0)
(2.9 9.64844e-15 0)
(2.9 -1.52806e-14 0)
(2.9 2.28169e-14 0)
(2.9 -1.75718e-14 0)
(2.9 2.57271e-14 0)
(2.9 1.053e-13 0)
(2.9 3.31883e-14 0)
(2.9 5.91832e-14 0)
(2.9 7.74357e-14 0)
(2.9 5.02845e-14 0)
(2.9 -2.89658e-14 0)
(2.9 -5.19789e-14 0)
(2.9 4.65846e-14 0)
(2.9 9.64968e-14 0)
(2.9 4.86905e-14 0)
(2.9 7.16919e-14 0)
(2.9 9.5342e-14 0)
(2.9 8.09285e-14 0)
(2.9 3.50614e-14 0)
(2.9 5.96291e-14 0)
(2.9 5.33834e-14 0)
(2.9 -2.94556e-14 0)
(2.9 -9.33843e-14 0)
(2.9 -1.33397e-13 0)
(2.9 -2.76901e-14 0)
(2.9 4.34521e-14 0)
(2.9 5.59691e-14 0)
(2.9 1.70881e-14 0)
(2.9 1.20289e-14 0)
(2.9 7.18748e-14 0)
(2.9 2.23465e-14 0)
(2.9 4.48481e-14 0)
(2.9 -4.05738e-16 0)
(2.9 -6.74486e-14 0)
(2.9 8.45067e-15 0)
(2.9 1.68732e-14 0)
(2.9 5.72382e-14 0)
(2.9 2.20419e-14 0)
(2.9 -3.47403e-14 0)
(2.9 -8.40458e-14 0)
(2.9 -4.43146e-14 0)
(2.9 -5.24819e-14 0)
(2.9 4.26611e-14 0)
(2.9 -3.39734e-14 0)
(2.9 4.38596e-15 0)
(2.9 -5.90861e-14 0)
(2.9 -2.37824e-14 0)
(2.9 -7.92754e-15 0)
(2.9 -2.8968e-14 0)
(2.9 4.51938e-14 0)
(2.9 -2.58853e-15 0)
(2.9 5.30059e-15 0)
(2.9 6.11257e-14 0)
(2.9 7.25372e-14 0)
(2.9 2.90357e-14 0)
(2.9 1.11492e-13 0)
(2.9 -5.60179e-14 0)
(2.9 -8.80464e-14 0)
(2.9 -3.07991e-14 0)
(2.9 1.925e-14 0)
(2.9 6.04635e-14 0)
(2.9 3.43576e-14 0)
(2.9 -2.6382e-14 0)
(2.9 2.14915e-14 0)
(2.9 3.15225e-14 0)
(2.9 5.36818e-14 0)
(2.9 -1.36483e-14 0)
(2.9 1.23562e-14 0)
(2.9 3.9342e-15 0)
(2.9 5.61114e-14 0)
(2.9 8.3622e-14 0)
(2.9 2.584e-14 0)
(2.9 3.83462e-14 0)
(2.9 5.52565e-14 0)
(2.9 7.45925e-14 0)
(2.9 1.03063e-13 0)
(2.9 9.59658e-14 0)
(2.9 4.75024e-14 0)
(2.9 1.32389e-14 0)
(2.9 7.22882e-14 0)
(2.9 4.91112e-14 0)
(2.9 4.48129e-14 0)
(2.9 2.51818e-15 0)
(2.9 5.23645e-14 0)
(2.9 2.79142e-14 0)
(2.9 2.97269e-14 0)
(2.9 1.99549e-14 0)
(2.9 7.34894e-14 0)
(2.9 -1.61148e-14 0)
(2.9 4.12306e-14 0)
(2.9 5.6271e-14 0)
(2.9 -2.89133e-14 0)
(2.9 -6.56355e-14 0)
(2.9 -2.84451e-14 0)
(2.9 -3.21487e-14 0)
(2.9 -4.84415e-14 0)
(2.9 -4.08781e-14 0)
(2.9 1.39139e-14 0)
(2.9 -6.03352e-14 0)
(2.9 -1.62339e-14 0)
(2.9 -6.39414e-14 0)
(2.9 -1.35601e-13 0)
(2.9 -6.05731e-14 0)
(2.9 -6.63264e-14 0)
(2.9 1.27641e-14 0)
(2.9 -3.31762e-14 0)
(2.9 -8.17781e-15 0)
(2.9 -5.95743e-14 0)
(2.9 1.97317e-15 0)
(2.9 1.05799e-14 0)
(2.9 -7.94974e-14 0)
(2.9 -1.47395e-14 0)
(2.9 7.24512e-14 0)
(2.9 3.67023e-14 0)
(2.9 -3.75049e-14 0)
(2.9 -6.52277e-14 0)
(2.9 1.44924e-14 0)
(2.9 -3.56356e-14 0)
(2.9 4.08473e-14 0)
(2.9 -1.14044e-14 0)
(2.9 2.9766e-14 0)
(2.9 5.4263e-14 0)
(2.9 1.79422e-14 0)
(2.9 -6.34421e-15 0)
(2.9 2.54579e-14 0)
(2.9 5.7387e-15 0)
(2.9 6.35654e-14 0)
(2.9 1.94654e-14 0)
(2.9 -4.07038e-15 0)
(2.9 1.10119e-13 0)
(2.9 1.28519e-13 0)
(2.9 6.843e-14 0)
(2.9 -7.98217e-14 0)
(2.9 1.65115e-14 0)
(2.9 1.44889e-13 0)
(2.9 8.53944e-14 0)
(2.9 4.20651e-14 0)
(2.9 -3.18008e-15 0)
(2.9 2.21537e-14 0)
(2.9 5.10853e-15 0)
(2.9 -2.80072e-14 0)
(2.9 4.64761e-15 0)
(2.9 9.03541e-14 0)
(2.9 1.49629e-13 0)
(2.9 4.7374e-14 0)
(2.9 2.28902e-14 0)
(2.9 -8.40012e-15 0)
(2.9 1.00543e-13 0)
(2.9 2.44646e-14 0)
(2.9 -2.75914e-14 0)
(2.9 4.63801e-14 0)
(2.9 -7.30541e-14 0)
(2.9 -4.85933e-14 0)
(2.9 3.55836e-14 0)
(2.9 -4.55149e-14 0)
(2.9 -4.05984e-14 0)
(2.9 -1.21823e-13 0)
(2.9 -2.21269e-14 0)
(2.9 -8.68906e-14 0)
(2.9 4.21562e-14 0)
(2.9 2.90279e-14 0)
(2.9 -3.29509e-14 0)
(2.9 -7.45895e-14 0)
(2.9 -5.41749e-14 0)
(2.9 -1.40719e-14 0)
(2.9 2.5535e-15 0)
(2.9 1.12997e-14 0)
(2.9 -7.66279e-14 0)
(2.9 3.83347e-14 0)
(2.9 -5.70765e-14 0)
(2.9 -7.64507e-14 0)
(2.9 1.17592e-14 0)
(2.9 4.61226e-14 0)
(2.9 9.94211e-14 0)
(2.9 -2.84484e-14 0)
(2.9 -1.76065e-13 0)
(2.9 -4.1073e-14 0)
(2.9 -3.1998e-14 0)
(2.9 1.72137e-14 0)
(2.9 -7.134e-14 0)
(2.9 1.46583e-14 0)
(2.9 2.21163e-14 0)
(2.9 5.17412e-14 0)
(2.9 4.75369e-14 0)
(2.9 1.309e-13 0)
(2.9 3.45088e-14 0)
(2.9 2.50857e-14 0)
(2.9 1.18714e-14 0)
(2.9 3.07334e-14 0)
(2.9 3.2921e-14 0)
(2.9 4.93614e-14 0)
(2.9 3.91787e-14 0)
(2.9 -4.04901e-14 0)
(2.9 2.38537e-14 0)
(2.9 6.70358e-14 0)
(2.9 1.35891e-14 0)
(2.9 7.87047e-15 0)
(2.9 -7.94553e-15 0)
(2.9 3.8189e-14 0)
(2.9 5.98999e-14 0)
(2.9 5.12012e-14 0)
(2.9 1.85846e-14 0)
(2.9 5.78998e-14 0)
(2.9 1.01446e-13 0)
(2.9 2.69328e-14 0)
(2.9 5.42313e-14 0)
(2.9 3.68681e-14 0)
(2.9 8.21707e-14 0)
(2.9 1.36334e-14 0)
(2.9 -1.30093e-14 0)
(2.9 4.97488e-14 0)
(2.9 -1.41999e-14 0)
(2.9 -3.68357e-14 0)
(2.9 3.23865e-14 0)
(2.9 -1.60865e-14 0)
(2.9 -1.55646e-14 0)
(2.9 -7.11006e-14 0)
(2.9 3.99262e-15 0)
(2.9 -9.50119e-15 0)
(2.9 1.7822e-14 0)
(2.9 3.30112e-14 0)
(2.9 3.20185e-14 0)
(2.9 -2.71447e-14 0)
(2.9 -2.91086e-16 0)
(2.9 3.13637e-14 0)
(2.9 3.05149e-14 0)
(2.9 -3.88483e-15 0)
(2.9 2.48708e-14 0)
(2.9 2.93188e-14 0)
(2.9 -4.32458e-14 0)
(2.9 2.89587e-15 0)
(2.9 4.87565e-14 0)
(2.9 3.50423e-14 0)
(2.9 4.94911e-14 0)
(2.9 -3.14968e-14 0)
(2.9 -1.63125e-13 0)
(2.9 -3.47105e-14 0)
(2.9 -2.66682e-14 0)
(2.9 -5.47664e-14 0)
(2.9 -1.1356e-13 0)
(2.9 -3.60187e-14 0)
(2.9 1.95371e-16 0)
(2.9 -5.5268e-15 0)
(2.9 9.58688e-15 0)
(2.9 6.93796e-14 0)
(2.9 2.72932e-14 0)
(2.9 -2.46839e-14 0)
(2.9 -1.84734e-14 0)
(2.9 -1.60838e-14 0)
(2.9 -4.54826e-14 0)
(2.9 -3.19399e-14 0)
(2.9 -2.6968e-14 0)
(2.9 2.80602e-14 0)
(2.9 4.55383e-15 0)
(2.9 -4.51464e-14 0)
(2.9 3.11223e-14 0)
(2.9 2.73868e-14 0)
(2.9 -5.80805e-15 0)
(2.9 3.13077e-14 0)
(2.9 1.04227e-13 0)
(2.9 1.00937e-13 0)
(2.9 5.40849e-14 0)
(2.9 -2.1681e-14 0)
(2.9 -6.5715e-14 0)
(2.9 3.9128e-14 0)
(2.9 7.76576e-14 0)
(2.9 7.53555e-14 0)
(2.9 9.26519e-14 0)
(2.9 2.3978e-14 0)
(2.9 3.31323e-14 0)
(2.9 8.15413e-14 0)
(2.9 4.94069e-14 0)
(2.9 6.82011e-15 0)
(2.9 8.84046e-15 0)
(2.9 4.09115e-14 0)
(2.9 7.78767e-14 0)
(2.9 1.56201e-14 0)
(2.9 2.00541e-14 0)
(2.9 4.96096e-14 0)
(2.9 -1.84409e-14 0)
(2.9 -3.14036e-14 0)
(2.9 3.97336e-14 0)
(2.9 6.34316e-15 0)
(2.9 5.71129e-14 0)
(2.9 1.24762e-14 0)
(2.9 5.65371e-14 0)
(2.9 1.65064e-14 0)
(2.9 1.10474e-13 0)
(2.9 7.0859e-14 0)
(2.9 5.80297e-14 0)
(2.9 1.03079e-13 0)
(2.9 1.24763e-13 0)
(2.9 9.07243e-14 0)
(2.9 4.73423e-14 0)
(2.9 -5.95902e-14 0)
(2.9 -1.02392e-13 0)
(2.9 -5.41796e-14 0)
(2.9 -1.65292e-14 0)
(2.9 -8.34593e-14 0)
(2.9 -1.14552e-13 0)
(2.9 -9.29577e-14 0)
(2.9 -8.21485e-14 0)
(2.9 -4.911e-14 0)
(2.9 -6.94249e-14 0)
(2.9 -7.34604e-15 0)
(2.9 5.22424e-15 0)
(2.9 -6.01662e-15 0)
(2.9 2.71787e-14 0)
(2.9 4.05561e-15 0)
(2.9 -5.76596e-14 0)
(2.9 -2.8788e-14 0)
(2.9 -7.4192e-16 0)
(2.9 4.00322e-14 0)
(2.9 -4.87376e-14 0)
(2.9 -1.25087e-13 0)
(2.9 3.09321e-14 0)
(2.9 8.48569e-14 0)
(2.9 -4.11329e-14 0)
(2.9 -2.19283e-14 0)
(2.9 6.79117e-14 0)
(2.9 4.49598e-14 0)
(2.9 5.05666e-14 0)
(2.9 -3.5663e-14 0)
(2.9 -1.28358e-13 0)
(2.9 -3.97365e-15 0)
(2.9 2.70412e-14 0)
(2.9 5.46532e-14 0)
(2.9 8.61212e-14 0)
(2.9 4.2474e-14 0)
(2.9 1.92327e-14 0)
(2.9 1.72014e-14 0)
(2.9 1.99735e-14 0)
(2.9 2.80052e-15 0)
(2.9 -3.14425e-14 0)
(2.9 7.26861e-14 0)
(2.9 1.69709e-13 0)
(2.9 7.89523e-14 0)
(2.9 -7.57844e-15 0)
(2.9 6.89213e-14 0)
(2.9 7.05158e-15 0)
(2.9 -2.56535e-14 0)
(2.9 5.31784e-14 0)
(2.9 -1.44814e-14 0)
(2.9 7.43374e-14 0)
(2.9 6.71102e-15 0)
(2.9 1.02007e-13 0)
(2.9 1.13953e-13 0)
(2.9 1.14486e-13 0)
(2.9 1.25993e-13 0)
(2.9 1.30005e-13 0)
(2.9 1.11895e-13 0)
(2.9 1.48638e-13 0)
(2.9 1.765e-13 0)
(2.9 8.34308e-14 0)
(2.9 -3.64249e-14 0)
(2.9 2.00571e-14 0)
(2.9 -7.26995e-15 0)
(2.9 3.19505e-14 0)
(2.9 3.65436e-15 0)
(2.9 -5.19294e-15 0)
(2.9 -7.81563e-14 0)
(2.9 -1.36547e-13 0)
(2.9 -5.3619e-14 0)
(2.9 -2.82891e-14 0)
(2.9 -9.28006e-14 0)
(2.9 -7.88059e-15 0)
(2.9 2.88536e-14 0)
(2.9 1.3148e-14 0)
(2.9 -1.77842e-14 0)
(2.9 -9.70752e-14 0)
(2.9 -1.72638e-14 0)
(2.9 5.6769e-15 0)
(2.9 4.23007e-14 0)
(2.9 1.02915e-14 0)
(2.9 -8.03139e-14 0)
(2.9 -4.53936e-14 0)
(2.9 5.74637e-14 0)
(2.9 2.72398e-14 0)
(2.9 -2.76859e-14 0)
(2.9 -3.28718e-14 0)
(2.9 -3.94508e-14 0)
(2.9 -2.97509e-14 0)
(2.9 -6.24146e-14 0)
(2.9 -1.22472e-13 0)
(2.9 -3.39863e-14 0)
(2.9 -1.03046e-14 0)
(2.9 1.11683e-14 0)
(2.9 -6.99216e-14 0)
(2.9 1.02684e-14 0)
(2.9 7.73489e-15 0)
(2.9 -7.86057e-14 0)
(2.9 1.68172e-14 0)
(2.9 8.46855e-14 0)
(2.9 8.46523e-15 0)
(2.9 7.79125e-14 0)
(2.9 1.08686e-13 0)
(2.9 2.49336e-16 0)
(2.9 -5.24889e-14 0)
(2.9 1.95818e-14 0)
(2.9 -3.98105e-14 0)
(2.9 3.28998e-14 0)
(2.9 -8.82251e-15 0)
(2.9 8.682e-15 0)
(2.9 4.89767e-14 0)
(2.9 -4.0168e-15 0)
(2.9 3.82763e-14 0)
(2.9 9.75834e-14 0)
(2.9 8.01304e-14 0)
(2.9 5.33611e-14 0)
(2.9 3.61876e-14 0)
(2.9 1.4897e-14 0)
(2.9 2.18812e-14 0)
(2.9 8.9486e-14 0)
(2.9 4.88554e-14 0)
(2.9 7.48184e-14 0)
(2.9 1.13897e-13 0)
(2.9 5.59845e-14 0)
(2.9 6.32725e-14 0)
(2.9 7.80393e-14 0)
(2.9 5.73987e-14 0)
(2.9 -3.26334e-14 0)
(2.9 -7.31884e-14 0)
(2.9 -6.16343e-14 0)
(2.9 -1.63137e-14 0)
(2.9 -6.78572e-14 0)
(2.9 3.17038e-14 0)
(2.9 2.27917e-15 0)
(2.9 2.34483e-15 0)
(2.9 -9.52338e-14 0)
(2.9 -8.92489e-14 0)
(2.9 8.77139e-15 0)
(2.9 5.52069e-14 0)
(2.9 3.26915e-14 0)
(2.9 -7.55552e-15 0)
(2.9 -3.77265e-14 0)
(2.9 -4.92165e-14 0)
(2.9 7.7552e-14 0)
(2.9 5.80337e-14 0)
(2.9 -2.6483e-14 0)
(2.9 -1.04199e-13 0)
(2.9 -4.9394e-14 0)
(2.9 -5.33934e-14 0)
(2.9 -8.63331e-14 0)
(2.9 -8.02365e-14 0)
(2.9 7.27371e-15 0)
(2.9 -3.40069e-14 0)
(2.9 6.03746e-15 0)
(2.9 -8.02555e-14 0)
(2.9 -1.24469e-14 0)
(2.9 2.28804e-14 0)
(2.9 -6.16416e-14 0)
(2.9 4.04213e-14 0)
(2.9 1.3076e-13 0)
(2.9 5.71531e-14 0)
(2.9 4.00296e-14 0)
(2.9 -1.23589e-14 0)
(2.9 8.96543e-15 0)
(2.9 -3.16992e-14 0)
(2.9 2.32892e-15 0)
(2.9 -5.03833e-14 0)
(2.9 2.01975e-14 0)
(2.9 -1.32799e-14 0)
(2.9 6.20044e-14 0)
(2.9 -7.64304e-15 0)
(2.9 -1.58042e-14 0)
(2.9 -5.15698e-14 0)
(2.9 1.51173e-14 0)
(2.9 5.1952e-15 0)
(2.9 -3.44665e-14 0)
(2.9 -4.2927e-14 0)
(2.9 -8.27804e-14 0)
(2.9 -7.26987e-14 0)
(2.9 -3.08977e-14 0)
(2.9 -6.52575e-14 0)
(2.9 3.03849e-14 0)
(2.9 1.40628e-13 0)
(2.9 -8.15212e-15 0)
(2.9 4.81572e-14 0)
(2.9 7.83397e-14 0)
(2.9 8.75573e-14 0)
(2.9 2.28357e-14 0)
(2.9 4.61469e-14 0)
(2.9 -2.44051e-14 0)
(2.9 1.75311e-14 0)
(2.9 -7.68712e-14 0)
(2.9 -1.61251e-14 0)
(2.9 -3.64594e-14 0)
(2.9 -1.57075e-14 0)
(2.9 -1.00674e-13 0)
(2.9 -7.69073e-14 0)
(2.9 1.16019e-14 0)
(2.9 7.14993e-14 0)
(2.9 -5.22261e-15 0)
(2.9 -4.22921e-14 0)
(2.9 -4.42965e-14 0)
(2.9 -2.20211e-14 0)
(2.9 6.18434e-14 0)
(2.9 4.72548e-14 0)
(2.9 -4.44365e-14 0)
(2.9 -1.46875e-13 0)
(2.9 -7.86143e-14 0)
(2.9 2.79535e-15 0)
(2.9 -9.0644e-14 0)
(2.9 2.61985e-14 0)
(2.9 6.09314e-14 0)
(2.9 -6.15204e-14 0)
(2.9 -3.33961e-14 0)
(2.9 -1.23756e-14 0)
(2.9 2.25956e-15 0)
(2.9 2.55246e-14 0)
(2.9 -2.67409e-14 0)
(2.9 3.78589e-14 0)
(2.9 9.43307e-14 0)
(2.9 5.38844e-14 0)
(2.9 -4.80189e-15 0)
(2.9 -2.93116e-14 0)
(2.9 5.21873e-15 0)
(2.9 4.71606e-14 0)
(2.9 5.33518e-14 0)
(2.9 -1.70362e-14 0)
(2.9 -5.35662e-14 0)
(2.9 -2.18662e-14 0)
(2.9 6.5018e-14 0)
(2.9 3.24247e-14 0)
(2.9 5.04183e-14 0)
(2.9 -3.73851e-14 0)
(2.9 3.37125e-14 0)
(2.9 -8.47505e-15 0)
(2.9 -8.02552e-14 0)
(2.9 -4.37732e-15 0)
(2.9 -9.30962e-14 0)
(2.9 -6.46567e-14 0)
(2.9 -3.50952e-14 0)
(2.9 -1.25315e-13 0)
(2.9 -5.5413e-14 0)
(2.9 5.7529e-14 0)
(2.9 2.75553e-14 0)
(2.9 4.58254e-14 0)
(2.9 3.07133e-14 0)
(2.9 8.88214e-14 0)
(2.9 7.58958e-14 0)
(2.9 5.893e-14 0)
(2.9 1.43918e-14 0)
(2.9 -5.21052e-14 0)
(2.9 -4.81268e-14 0)
(2.9 -6.03829e-14 0)
(2.9 -6.43637e-14 0)
(2.9 -2.48666e-14 0)
(2.9 -6.72945e-14 0)
(2.9 -8.04594e-14 0)
(2.9 -4.21147e-14 0)
(2.9 -5.34378e-14 0)
(2.9 -4.91367e-14 0)
(2.9 -2.35982e-14 0)
(2.9 -5.51758e-14 0)
(2.9 -4.72001e-14 0)
(2.9 -3.12254e-14 0)
(2.9 5.75965e-14 0)
(2.9 3.73855e-14 0)
(2.9 -8.33682e-14 0)
(2.9 -1.35044e-13 0)
(2.9 -8.76942e-14 0)
(2.9 -8.00832e-15 0)
(2.9 4.48469e-14 0)
(2.9 6.38937e-14 0)
(2.9 -2.70245e-14 0)
(2.9 -2.52889e-14 0)
(2.9 1.58822e-15 0)
(2.9 -2.30594e-14 0)
(2.9 -5.48762e-14 0)
(2.9 -6.48441e-14 0)
(2.9 -3.31286e-14 0)
(2.9 -3.30706e-14 0)
(2.9 -1.04914e-14 0)
(2.9 -7.18657e-14 0)
(2.9 -3.38791e-14 0)
(2.9 -1.0425e-14 0)
(2.9 4.76309e-14 0)
(2.9 7.59485e-15 0)
(2.9 5.33686e-15 0)
(2.9 -1.96202e-14 0)