/*--------------------------------*- C++ -*----------------------------------*\
| =========                 |                                                 |
| \\      /  F ield         | OpenFOAM: The Open Source CFD Toolbox           |
|  \\    /   O peration     | Version:  2412                                  |
|   \\  /    A nd           | Website:  www.openfoam.com                      |
|    \\/     M anipulation  |                                                 |
\*---------------------------------------------------------------------------*/
FoamFile
{
    version     2.0;
    format      ascii;
    arch        "LSB;label=32;scalar=64";
    class       volVectorField;
    location    "0.005";
    object      U;
}
// * * * * * * * * * * * * * * * * * * * * * * * * * * * * * * * * * * * * * //

dimensions      [0 1 -1 0 0 0 0];

internalField   nonuniform List<vector> 
1800
(
(2.9 1.98795e-08 0)
(2.9 4.43954e-09 0)
(2.9 8.74993e-09 0)
(2.9 2.71337e-08 0)
(2.9 -2.50631e-09 0)
(2.9 1.56257e-08 0)
(2.9 9.0189e-09 0)
(2.9 1.00025e-08 0)
(2.9 8.12709e-09 0)
(2.9 8.43064e-09 0)
(2.9 1.02825e-08 0)
(2.9 1.6721e-08 0)
(2.9 2.53807e-08 0)
(2.9 1.06968e-08 0)
(2.9 3.71937e-09 0)
(2.9 -3.97707e-09 0)
(2.9 -9.6158e-09 0)
(2.9 -5.23827e-09 0)
(2.9 -5.88231e-09 0)
(2.9 -5.96402e-09 0)
(2.9 3.50664e-09 0)
(2.9 -1.50026e-09 0)
(2.9 1.21189e-08 0)
(2.9 -1.9637e-09 0)
(2.9 2.32297e-10 0)
(2.9 -7.57903e-09 0)
(2.9 -4.63875e-09 0)
(2.9 -6.7317e-09 0)
(2.9 -1.03421e-08 0)
(2.9 -5.47869e-09 0)
(2.9 -1.79326e-09 0)
(2.9 -2.21881e-09 0)
(2.9 -5.51496e-09 0)
(2.9 -3.29848e-09 0)
(2.9 -1.1751e-08 0)
(2.9 -6.85913e-09 0)
(2.9 5.40786e-09 0)
(2.9 7.64785e-09 0)
(2.9 1.40808e-08 0)
(2.9 2.6173e-09 0)
(2.9 -1.13816e-08 0)
(2.9 -1.95441e-08 0)
(2.9 -5.36185e-09 0)
(2.9 2.83523e-09 0)
(2.9 3.10681e-08 0)
(2.9 1.13493e-09 0)
(2.9 1.44007e-08 0)
(2.9 3.35218e-09 0)
(2.9 1.17521e-08 0)
(2.9 -1.42952e-09 0)
(2.9 1.75735e-09 0)
(2.9 1.39275e-08 0)
(2.9 3.12064e-08 0)
(2.9 8.43005e-10 0)
(2.9 6.27929e-09 0)
(2.9 1.63778e-08 0)
(2.9 -8.88997e-09 0)
(2.9 -9.45065e-09 0)
(2.9 -4.7532e-09 0)
(2.9 -2.40785e-09 0)
(2.9 3.04795e-08 0)
(2.9 1.1116e-08 0)
(2.9 1.45158e-08 0)
(2.9 2.98509e-08 0)
(2.9 -1.42293e-08 0)
(2.9 2.23587e-08 0)
(2.9 2.36292e-08 0)
(2.9 1.16022e-08 0)
(2.9 1.17456e-08 0)
(2.9 2.19305e-08 0)
(2.9 2.49655e-08 0)
(2.9 3.87037e-08 0)
(2.9 7.20881e-08 0)
(2.9 2.64452e-08 0)
(2.9 5.03388e-09 0)
(2.9 -1.64698e-08 0)
(2.9 -2.70565e-08 0)
(2.9 -2.00502e-08 0)
(2.9 -2.26698e-08 0)
(2.9 -1.90511e-08 0)
(2.9 6.14539e-09 0)
(2.9 2.83947e-08 0)
(2.9 3.15301e-08 0)
(2.9 2.50166e-08 0)
(2.9 -4.18312e-09 0)
(2.9 -2.18018e-08 0)
(2.9 -1.85959e-08 0)
(2.9 -2.50859e-08 0)
(2.9 -2.96014e-08 0)
(2.9 -1.6602e-08 0)
(2.9 -7.29685e-09 0)
(2.9 -9.1938e-09 0)
(2.9 -1.23091e-08 0)
(2.9 -7.67584e-09 0)
(2.9 5.48088e-09 0)
(2.9 1.73824e-08 0)
(2.9 1.46926e-08 0)
(2.9 1.88541e-08 0)
(2.9 3.03023e-08 0)
(2.9 2.80159e-08 0)
(2.9 1.50046e-09 0)
(2.9 -4.93346e-09 0)
(2.9 -4.37164e-09 0)
(2.9 1.4693e-08 0)
(2.9 5.91216e-08 0)
(2.9 4.24141e-08 0)
(2.9 4.29324e-08 0)
(2.9 3.74961e-08 0)
(2.9 2.94894e-08 0)
(2.9 3.22573e-08 0)
(2.9 3.09694e-08 0)
(2.9 2.56249e-08 0)
(2.9 4.94348e-08 0)
(2.9 2.61627e-08 0)
(2.9 5.55641e-09 0)
(2.9 1.25672e-08 0)
(2.9 -1.7317e-08 0)
(2.9 -1.95476e-08 0)
(2.9 -7.84802e-09 0)
(2.9 -4.12765e-09 0)
(2.9 1.40754e-08 0)
(2.9 1.13453e-08 0)
(2.9 7.68335e-09 0)
(2.9 1.78673e-09 0)
(2.9 -1.91705e-08 0)
(2.9 1.05406e-08 0)
(2.9 3.64815e-08 0)
(2.9 3.75084e-08 0)
(2.9 4.87494e-08 0)
(2.9 3.37418e-08 0)
(2.9 3.22857e-08 0)
(2.9 4.61199e-08 0)
(2.9 8.09854e-08 0)
(2.9 3.08379e-08 0)
(2.9 8.51109e-10 0)
(2.9 -2.85116e-08 0)
(2.9 -4.21216e-08 0)
(2.9 -3.56746e-08 0)
(2.9 -3.88414e-08 0)
(2.9 -3.18298e-08 0)
(2.9 3.54201e-09 0)
(2.9 5.19607e-08 0)
(2.9 3.98196e-08 0)
(2.9 4.47332e-08 0)
(2.9 -1.13078e-08 0)
(2.9 -3.50676e-08 0)
(2.9 -3.37452e-08 0)
(2.9 -4.20537e-08 0)
(2.9 -4.50289e-08 0)
(2.9 -2.61449e-08 0)
(2.9 -1.32722e-08 0)
(2.9 -1.27184e-08 0)
(2.9 -1.37245e-08 0)
(2.9 -1.15675e-08 0)
(2.9 2.31905e-08 0)
(2.9 3.93379e-08 0)
(2.9 1.91718e-08 0)
(2.9 2.23981e-08 0)
(2.9 3.12419e-08 0)
(2.9 4.09634e-08 0)
(2.9 1.53347e-08 0)
(2.9 1.4015e-08 0)
(2.9 -2.30303e-09 0)
(2.9 2.40492e-08 0)
(2.9 4.99635e-08 0)
(2.9 7.65745e-08 0)
(2.9 6.083e-08 0)
(2.9 5.47535e-08 0)
(2.9 3.7661e-08 0)
(2.9 5.75736e-08 0)
(2.9 4.12688e-08 0)
(2.9 2.22236e-08 0)
(2.9 2.66317e-08 0)
(2.9 3.7759e-08 0)
(2.9 -5.67299e-09 0)
(2.9 -1.53319e-08 0)
(2.9 -1.77958e-08 0)
(2.9 -2.92888e-08 0)
(2.9 -5.09437e-09 0)
(2.9 -2.40427e-09 0)
(2.9 3.0876e-09 0)
(2.9 8.27559e-09 0)
(2.9 2.16314e-09 0)
(2.9 -4.84701e-09 0)
(2.9 -1.18444e-08 0)
(2.9 1.32921e-08 0)
(2.9 4.8881e-08 0)
(2.9 9.23273e-08 0)
(2.9 8.21814e-08 0)
(2.9 4.02706e-08 0)
(2.9 3.31841e-08 0)
(2.9 4.22268e-08 0)
(2.9 5.61039e-08 0)
(2.9 2.06883e-08 0)
(2.9 -1.31442e-08 0)
(2.9 -4.06452e-08 0)
(2.9 -4.98127e-08 0)
(2.9 -4.46784e-08 0)
(2.9 -4.89954e-08 0)
(2.9 -3.7699e-08 0)
(2.9 -1.63414e-09 0)
(2.9 3.43426e-08 0)
(2.9 3.38476e-08 0)
(2.9 2.38775e-08 0)
(2.9 -2.57905e-08 0)
(2.9 -4.43055e-08 0)
(2.9 -4.32998e-08 0)
(2.9 -5.23865e-08 0)
(2.9 -5.05281e-08 0)
(2.9 -2.97267e-08 0)
(2.9 -1.56629e-08 0)
(2.9 -1.158e-08 0)
(2.9 -1.17495e-08 0)
(2.9 -2.00118e-08 0)
(2.9 5.65939e-09 0)
(2.9 2.25283e-08 0)
(2.9 1.70799e-08 0)
(2.9 1.94143e-08 0)
(2.9 2.07659e-08 0)
(2.9 7.77859e-09 0)
(2.9 -1.58452e-08 0)
(2.9 -9.71904e-09 0)
(2.9 -1.27977e-08 0)
(2.9 2.92849e-08 0)
(2.9 3.42186e-08 0)
(2.9 6.68395e-08 0)
(2.9 6.47184e-08 0)
(2.9 6.32317e-08 0)
(2.9 3.53944e-08 0)
(2.9 4.27854e-08 0)
(2.9 4.39791e-08 0)
(2.9 1.37446e-08 0)
(2.9 9.13532e-09 0)
(2.9 1.18393e-08 0)
(2.9 -1.79648e-08 0)
(2.9 -2.26485e-08 0)
(2.9 -7.40152e-09 0)
(2.9 -1.76933e-09 0)
(2.9 3.61896e-09 0)
(2.9 1.75242e-09 0)
(2.9 -1.20725e-08 0)
(2.9 6.31242e-09 0)
(2.9 3.26375e-09 0)
(2.9 1.9998e-09 0)
(2.9 -2.00976e-09 0)
(2.9 1.66257e-08 0)
(2.9 5.32502e-08 0)
(2.9 1.00302e-07 0)
(2.9 6.91405e-08 0)
(2.9 3.83579e-08 0)
(2.9 2.45242e-08 0)
(2.9 3.13229e-08 0)
(2.9 3.04176e-08 0)
(2.9 -6.00882e-09 0)
(2.9 -3.60425e-08 0)
(2.9 -4.59272e-08 0)
(2.9 -5.11067e-08 0)
(2.9 -4.43338e-08 0)
(2.9 -4.38563e-08 0)
(2.9 -3.61946e-08 0)
(2.9 -2.91479e-09 0)
(2.9 2.26302e-08 0)
(2.9 2.43248e-08 0)
(2.9 2.26571e-09 0)
(2.9 -3.64931e-08 0)
(2.9 -5.52116e-08 0)
(2.9 -4.76862e-08 0)
(2.9 -4.82411e-08 0)
(2.9 -4.73268e-08 0)
(2.9 -2.58463e-08 0)
(2.9 -1.34671e-08 0)
(2.9 -7.50802e-09 0)
(2.9 -7.80434e-09 0)
(2.9 -2.61416e-08 0)
(2.9 -5.97397e-09 0)
(2.9 1.26072e-08 0)
(2.9 1.31719e-08 0)
(2.9 1.38466e-08 0)
(2.9 5.97721e-09 0)
(2.9 -1.60887e-08 0)
(2.9 -4.26643e-08 0)
(2.9 -2.31811e-08 0)
(2.9 1.20447e-08 0)
(2.9 3.69088e-08 0)
(2.9 5.39325e-08 0)
(2.9 5.54361e-08 0)
(2.9 5.76127e-08 0)
(2.9 7.22682e-08 0)
(2.9 3.55708e-08 0)
(2.9 3.33316e-08 0)
(2.9 5.45988e-08 0)
(2.9 1.37512e-08 0)
(2.9 -5.77616e-10 0)
(2.9 -6.11037e-09 0)
(2.9 -1.94802e-08 0)
(2.9 -1.91664e-08 0)
(2.9 7.1093e-09 0)
(2.9 1.93865e-08 0)
(2.9 1.28934e-08 0)
(2.9 6.51711e-09 0)
(2.9 7.42204e-09 0)
(2.9 9.12468e-09 0)
(2.9 8.45947e-09 0)
(2.9 1.28955e-08 0)
(2.9 -9.29989e-11 0)
(2.9 1.16448e-08 0)
(2.9 5.02499e-08 0)
(2.9 7.29675e-08 0)
(2.9 5.43901e-08 0)
(2.9 2.50361e-08 0)
(2.9 7.44108e-09 0)
(2.9 1.16375e-08 0)
(2.9 -2.11093e-09 0)
(2.9 -3.5345e-08 0)
(2.9 -4.81982e-08 0)
(2.9 -4.51935e-08 0)
(2.9 -5.61704e-08 0)
(2.9 -3.26608e-08 0)
(2.9 -3.14827e-08 0)
(2.9 -3.8717e-08 0)
(2.9 -4.27379e-10 0)
(2.9 1.58223e-08 0)
(2.9 1.16378e-08 0)
(2.9 -1.47518e-08 0)
(2.9 -4.19875e-08 0)
(2.9 -7.24073e-08 0)
(2.9 -4.35629e-08 0)
(2.9 -3.80672e-08 0)
(2.9 -4.81065e-08 0)
(2.9 -1.75191e-08 0)
(2.9 -8.3622e-09 0)
(2.9 -7.69607e-09 0)
(2.9 1.08685e-09 0)
(2.9 3.70345e-09 0)
(2.9 -2.07033e-08 0)
(2.9 6.22395e-09 0)
(2.9 9.24523e-09 0)
(2.9 2.111e-09 0)
(2.9 -7.42526e-09 0)
(2.9 -2.89044e-08 0)
(2.9 -6.10768e-08 0)
(2.9 -3.16932e-08 0)
(2.9 3.87819e-08 0)
(2.9 3.65512e-08 0)
(2.9 6.14191e-08 0)
(2.9 3.55734e-08 0)
(2.9 3.97104e-08 0)
(2.9 4.88477e-08 0)
(2.9 3.7207e-08 0)
(2.9 1.81608e-08 0)
(2.9 4.01354e-08 0)
(2.9 2.05603e-08 0)
(2.9 -1.72989e-08 0)
(2.9 -1.50904e-08 0)
(2.9 -1.2403e-08 0)
(2.9 -1.89621e-08 0)
(2.9 2.11308e-08 0)
(2.9 3.83002e-08 0)
(2.9 2.04494e-08 0)
(2.9 1.04707e-08 0)
(2.9 2.74533e-08 0)
(2.9 1.23836e-08 0)
(2.9 1.36542e-08 0)
(2.9 2.46516e-08 0)
(2.9 3.64639e-08 0)
(2.9 4.27654e-08 0)
(2.9 4.7928e-08 0)
(2.9 5.3957e-08 0)
(2.9 3.65527e-08 0)
(2.9 4.99425e-09 0)
(2.9 -8.60639e-09 0)
(2.9 -9.86776e-09 0)
(2.9 -2.58306e-08 0)
(2.9 -4.53848e-08 0)
(2.9 -4.98381e-08 0)
(2.9 -3.93874e-08 0)
(2.9 -2.73782e-08 0)
(2.9 -2.04205e-08 0)
(2.9 -1.93629e-08 0)
(2.9 -1.08699e-08 0)
(2.9 5.69219e-09 0)
(2.9 1.10888e-08 0)
(2.9 3.40946e-10 0)
(2.9 -2.10032e-08 0)
(2.9 -4.4254e-08 0)
(2.9 -4.93516e-08 0)
(2.9 -3.60302e-08 0)
(2.9 -2.77291e-08 0)
(2.9 -1.87609e-08 0)
(2.9 -6.3177e-09 0)
(2.9 -1.00608e-08 0)
(2.9 -1.37325e-08 0)
(2.9 3.43873e-09 0)
(2.9 2.93907e-08 0)
(2.9 1.27193e-09 0)
(2.9 6.79512e-09 0)
(2.9 -7.52068e-10 0)
(2.9 -1.3938e-08 0)
(2.9 -1.7917e-08 0)
(2.9 -2.64144e-08 0)
(2.9 -2.65608e-08 0)
(2.9 4.62125e-09 0)
(2.9 2.63814e-08 0)
(2.9 1.7167e-08 0)
(2.9 2.10436e-08 0)
(2.9 1.30708e-08 0)
(2.9 2.27523e-08 0)
(2.9 3.65406e-08 0)
(2.9 4.22746e-08 0)
(2.9 3.88266e-08 0)
(2.9 4.21996e-08 0)
(2.9 2.91393e-08 0)
(2.9 -1.86468e-09 0)
(2.9 -9.58936e-09 0)
(2.9 2.40609e-09 0)
(2.9 1.31007e-08 0)
(2.9 3.41336e-08 0)
(2.9 6.03835e-08 0)
(2.9 2.49598e-08 0)
(2.9 1.2781e-08 0)
(2.9 1.41335e-08 0)
(2.9 1.17626e-08 0)
(2.9 1.60987e-08 0)
(2.9 3.1255e-08 0)
(2.9 6.64323e-08 0)
(2.9 6.92913e-08 0)
(2.9 4.42734e-08 0)
(2.9 3.86579e-08 0)
(2.9 1.84485e-08 0)
(2.9 -6.87388e-09 0)
(2.9 -1.66343e-08 0)
(2.9 -2.0253e-08 0)
(2.9 -2.92279e-08 0)
(2.9 -4.62686e-08 0)
(2.9 -4.97263e-08 0)
(2.9 -2.88392e-08 0)
(2.9 -9.21707e-09 0)
(2.9 -1.48132e-08 0)
(2.9 -8.33772e-09 0)
(2.9 7.7397e-09 0)
(2.9 1.12405e-08 0)
(2.9 7.77585e-09 0)
(2.9 -3.81817e-09 0)
(2.9 -2.53866e-08 0)
(2.9 -4.17635e-08 0)
(2.9 -3.14351e-08 0)
(2.9 -3.06443e-08 0)
(2.9 -1.68954e-08 0)
(2.9 1.28204e-09 0)
(2.9 -6.3016e-09 0)
(2.9 -2.11095e-08 0)
(2.9 -2.04619e-08 0)
(2.9 -2.12848e-09 0)
(2.9 2.0717e-08 0)
(2.9 1.75232e-08 0)
(2.9 7.06461e-09 0)
(2.9 -1.41676e-08 0)
(2.9 -2.44325e-08 0)
(2.9 -2.12652e-08 0)
(2.9 -8.89504e-09 0)
(2.9 7.26604e-09 0)
(2.9 3.71302e-08 0)
(2.9 1.39204e-08 0)
(2.9 -3.5572e-09 0)
(2.9 -3.97917e-09 0)
(2.9 -5.8817e-09 0)
(2.9 9.48296e-09 0)
(2.9 2.40308e-08 0)
(2.9 4.25544e-08 0)
(2.9 5.12598e-08 0)
(2.9 4.64393e-08 0)
(2.9 2.79864e-08 0)
(2.9 1.09626e-08 0)
(2.9 3.78832e-09 0)
(2.9 1.28349e-08 0)
(2.9 3.11087e-08 0)
(2.9 3.87224e-08 0)
(2.9 3.98318e-08 0)
(2.9 2.06782e-08 0)
(2.9 1.18204e-08 0)
(2.9 7.70557e-09 0)
(2.9 9.79762e-09 0)
(2.9 1.54857e-08 0)
(2.9 2.9378e-08 0)
(2.9 5.03686e-08 0)
(2.9 5.14245e-08 0)
(2.9 3.59094e-08 0)
(2.9 2.57819e-08 0)
(2.9 8.2848e-09 0)
(2.9 -7.53566e-09 0)
(2.9 -1.60424e-08 0)
(2.9 -1.71122e-08 0)
(2.9 -2.6747e-08 0)
(2.9 -5.061e-08 0)
(2.9 -4.678e-08 0)
(2.9 -1.56866e-08 0)
(2.9 6.14386e-09 0)
(2.9 -5.75052e-09 0)
(2.9 3.94953e-09 0)
(2.9 2.52733e-08 0)
(2.9 1.58503e-08 0)
(2.9 7.07784e-09 0)
(2.9 -6.32408e-09 0)
(2.9 -2.67322e-08 0)
(2.9 -3.91247e-08 0)
(2.9 -1.62637e-08 0)
(2.9 -1.93174e-08 0)
(2.9 -3.3606e-09 0)
(2.9 1.14347e-08 0)
(2.9 -1.73089e-08 0)
(2.9 -2.96338e-08 0)
(2.9 -2.30586e-08 0)
(2.9 -3.0445e-09 0)
(2.9 1.77856e-08 0)
(2.9 2.95793e-08 0)
(2.9 5.57716e-09 0)
(2.9 -1.81191e-08 0)
(2.9 -2.44464e-08 0)
(2.9 -1.28076e-08 0)
(2.9 1.60871e-08 0)
(2.9 2.78092e-08 0)
(2.9 2.20307e-08 0)
(2.9 8.27562e-09 0)
(2.9 -9.90288e-09 0)
(2.9 -1.72679e-08 0)
(2.9 -2.19384e-08 0)
(2.9 -8.70764e-09 0)
(2.9 6.14489e-09 0)
(2.9 3.54212e-08 0)
(2.9 5.86608e-08 0)
(2.9 3.96425e-08 0)
(2.9 2.05729e-08 0)
(2.9 2.55021e-08 0)
(2.9 8.99823e-09 0)
(2.9 8.2378e-09 0)
(2.9 3.72326e-08 0)
(2.9 2.89006e-08 0)
(2.9 1.73478e-08 0)
(2.9 1.02255e-08 0)
(2.9 7.34122e-09 0)
(2.9 4.38697e-09 0)
(2.9 7.52691e-09 0)
(2.9 1.30451e-08 0)
(2.9 2.40189e-08 0)
(2.9 3.68584e-08 0)
(2.9 3.71234e-08 0)
(2.9 2.68541e-08 0)
(2.9 1.72059e-08 0)
(2.9 6.01244e-09 0)
(2.9 -1.75073e-09 0)
(2.9 -1.29738e-08 0)
(2.9 -1.14982e-08 0)
(2.9 -2.56317e-08 0)
(2.9 -5.89432e-08 0)
(2.9 -4.58772e-08 0)
(2.9 -3.64377e-09 0)
(2.9 3.15527e-08 0)
(2.9 7.83723e-09 0)
(2.9 1.47986e-08 0)
(2.9 4.79869e-08 0)
(2.9 1.93751e-08 0)
(2.9 6.69361e-09 0)
(2.9 -7.63238e-09 0)
(2.9 -2.47128e-08 0)
(2.9 -4.38142e-08 0)
(2.9 5.1542e-09 0)
(2.9 -3.12911e-09 0)
(2.9 4.72357e-09 0)
(2.9 2.03899e-08 0)
(2.9 -2.2336e-08 0)
(2.9 -2.84065e-08 0)
(2.9 -1.9968e-08 0)
(2.9 -5.43621e-09 0)
(2.9 1.20824e-08 0)
(2.9 3.8961e-08 0)
(2.9 7.03607e-09 0)
(2.9 -1.17553e-08 0)
(2.9 -1.64354e-08 0)
(2.9 2.36066e-09 0)
(2.9 4.123e-08 0)
(2.9 8.23352e-08 0)
(2.9 4.76801e-08 0)
(2.9 9.24797e-09 0)
(2.9 -1.19944e-08 0)
(2.9 -2.52215e-08 0)
(2.9 -4.18685e-08 0)
(2.9 -3.0664e-08 0)
(2.9 -1.45165e-08 0)
(2.9 2.27538e-08 0)
(2.9 6.31183e-08 0)
(2.9 2.39859e-08 0)
(2.9 1.54815e-08 0)
(2.9 4.25015e-08 0)
(2.9 -6.35743e-09 0)
(2.9 -5.7201e-09 0)
(2.9 3.81524e-08 0)
(2.9 8.69371e-09 0)
(2.9 -7.15292e-10 0)
(2.9 6.46537e-11 0)
(2.9 1.88392e-09 0)
(2.9 2.56087e-09 0)
(2.9 2.0173e-10 0)
(2.9 7.03522e-09 0)
(2.9 1.17697e-08 0)
(2.9 1.75004e-08 0)
(2.9 2.19418e-08 0)
(2.9 1.79535e-08 0)
(2.9 1.20935e-08 0)
(2.9 7.60116e-09 0)
(2.9 5.59201e-09 0)
(2.9 -2.24373e-08 0)
(2.9 -1.03535e-08 0)
(2.9 -2.21571e-08 0)
(2.9 -3.09195e-08 0)
(2.9 -8.83184e-09 0)
(2.9 3.4757e-09 0)
(2.9 2.03073e-08 0)
(2.9 1.53402e-08 0)
(2.9 1.56095e-08 0)
(2.9 2.94517e-08 0)
(2.9 1.5605e-08 0)
(2.9 4.9022e-09 0)
(2.9 -7.67128e-09 0)
(2.9 -1.82522e-08 0)
(2.9 -1.08962e-08 0)
(2.9 -1.14401e-08 0)
(2.9 6.70746e-09 0)
(2.9 3.99935e-10 0)
(2.9 -2.17078e-09 0)
(2.9 -2.11919e-08 0)
(2.9 -1.97506e-08 0)
(2.9 -2.0369e-08 0)
(2.9 -1.15694e-08 0)
(2.9 5.70421e-09 0)
(2.9 2.82406e-09 0)
(2.9 6.6637e-09 0)
(2.9 -1.95754e-09 0)
(2.9 -8.86418e-09 0)
(2.9 1.62947e-08 0)
(2.9 5.51587e-08 0)
(2.9 7.53354e-08 0)
(2.9 5.59687e-08 0)
(2.9 2.07229e-09 0)
(2.9 -2.05286e-08 0)
(2.9 -3.20077e-08 0)
(2.9 -6.75654e-08 0)
(2.9 -5.46447e-08 0)
(2.9 -3.62764e-08 0)
(2.9 3.51177e-09 0)
(2.9 2.34225e-08 0)
(2.9 8.03973e-09 0)
(2.9 1.09017e-08 0)
(2.9 1.37249e-08 0)
(2.9 -3.677e-08 0)
(2.9 -1.84769e-08 0)
(2.9 -1.79607e-11 0)
(2.9 -9.72366e-09 0)
(2.9 -1.01983e-08 0)
(2.9 -5.53312e-09 0)
(2.9 -1.89862e-09 0)
(2.9 -4.00323e-09 0)
(2.9 -1.26931e-08 0)
(2.9 -1.0002e-08 0)
(2.9 -1.527e-08 0)
(2.9 -1.00899e-08 0)
(2.9 4.04199e-09 0)
(2.9 8.8555e-09 0)
(2.9 8.52232e-09 0)
(2.9 9.70558e-09 0)
(2.9 6.45287e-09 0)
(2.9 -4.79811e-09 0)
(2.9 -1.15409e-08 0)
(2.9 -2.69961e-08 0)
(2.9 -6.71591e-09 0)
(2.9 2.32744e-08 0)
(2.9 -7.48041e-09 0)
(2.9 4.14173e-09 0)
(2.9 1.28461e-08 0)
(2.9 -4.071e-09 0)
(2.9 4.84144e-09 0)
(2.9 3.74372e-09 0)
(2.9 4.60965e-10 0)
(2.9 -7.53468e-09 0)
(2.9 -4.53478e-09 0)
(2.9 1.87561e-08 0)
(2.9 6.13353e-09 0)
(2.9 9.86835e-09 0)
(2.9 -1.81433e-08 0)
(2.9 -1.89193e-08 0)
(2.9 -2.04894e-08 0)
(2.9 -1.12817e-08 0)
(2.9 -3.51944e-08 0)
(2.9 -1.32456e-08 0)
(2.9 1.55527e-10 0)
(2.9 7.96908e-09 0)
(2.9 7.22915e-09 0)
(2.9 6.23343e-09 0)
(2.9 -1.03432e-08 0)
(2.9 2.55157e-08 0)
(2.9 4.79016e-08 0)
(2.9 4.34381e-08 0)
(2.9 1.45145e-08 0)
(2.9 -9.78557e-09 0)
(2.9 -4.16986e-08 0)
(2.9 -3.61516e-08 0)
(2.9 -5.63764e-08 0)
(2.9 -7.207e-08 0)
(2.9 -5.14685e-08 0)
(2.9 -2.0123e-08 0)
(2.9 -1.36152e-08 0)
(2.9 -5.71705e-09 0)
(2.9 -2.76481e-09 0)
(2.9 -1.42065e-08 0)
(2.9 -2.30923e-08 0)
(2.9 -2.7624e-08 0)
(2.9 -2.42669e-08 0)
(2.9 -1.89556e-08 0)
(2.9 -1.3477e-08 0)
(2.9 -6.51084e-09 0)
(2.9 -3.05742e-09 0)
(2.9 -1.30056e-08 0)
(2.9 -2.60281e-08 0)
(2.9 -3.52354e-08 0)
(2.9 -4.41023e-08 0)
(2.9 -3.17035e-08 0)
(2.9 -1.05009e-08 0)
(2.9 1.0908e-09 0)
(2.9 5.52876e-09 0)
(2.9 5.98e-09 0)
(2.9 -1.78137e-09 0)
(2.9 1.21856e-08 0)
(2.9 -1.75101e-08 0)
(2.9 -3.39976e-08 0)
(2.9 -2.53727e-08 0)
(2.9 1.01707e-08 0)
(2.9 -2.09587e-09 0)
(2.9 -1.22088e-08 0)
(2.9 2.60534e-09 0)
(2.9 -4.78657e-09 0)
(2.9 -1.84566e-08 0)
(2.9 -1.09294e-08 0)
(2.9 -5.49514e-09 0)
(2.9 -3.44591e-09 0)
(2.9 5.99731e-09 0)
(2.9 -9.7493e-09 0)
(2.9 1.82139e-08 0)
(2.9 6.74853e-09 0)
(2.9 -1.18582e-08 0)
(2.9 -2.91694e-08 0)
(2.9 -2.44901e-08 0)
(2.9 -1.07937e-08 0)
(2.9 -1.68547e-08 0)
(2.9 -1.23505e-08 0)
(2.9 -8.76948e-09 0)
(2.9 2.13683e-08 0)
(2.9 8.5519e-09 0)
(2.9 1.42081e-08 0)
(2.9 2.04748e-08 0)
(2.9 2.64743e-08 0)
(2.9 1.68152e-08 0)
(2.9 1.71659e-08 0)
(2.9 -1.1656e-08 0)
(2.9 -1.98514e-08 0)
(2.9 -2.91815e-08 0)
(2.9 -3.96528e-08 0)
(2.9 -4.66784e-08 0)
(2.9 -6.98727e-08 0)
(2.9 -6.49856e-08 0)
(2.9 -4.94012e-08 0)
(2.9 -4.20343e-08 0)
(2.9 -2.12819e-08 0)
(2.9 -3.22371e-08 0)
(2.9 -3.33099e-08 0)
(2.9 -3.88023e-09 0)
(2.9 -3.82633e-08 0)
(2.9 -3.08321e-08 0)
(2.9 -2.33763e-08 0)
(2.9 -1.82425e-08 0)
(2.9 -5.57177e-09 0)
(2.9 -2.33457e-09 0)
(2.9 -1.58885e-08 0)
(2.9 -3.46171e-08 0)
(2.9 -4.97261e-08 0)
(2.9 -5.38553e-08 0)
(2.9 -4.32756e-08 0)
(2.9 -2.50716e-08 0)
(2.9 -7.51935e-09 0)
(2.9 4.93723e-10 0)
(2.9 -2.41099e-09 0)
(2.9 -8.47317e-09 0)
(2.9 -8.66452e-09 0)
(2.9 -2.94717e-08 0)
(2.9 -3.82114e-08 0)
(2.9 -5.21003e-08 0)
(2.9 -8.97017e-09 0)
(2.9 1.06035e-09 0)
(2.9 -2.66928e-08 0)
(2.9 -1.59404e-08 0)
(2.9 -5.44366e-09 0)
(2.9 -3.03454e-08 0)
(2.9 -1.9874e-08 0)
(2.9 -8.41894e-09 0)
(2.9 2.17298e-09 0)
(2.9 1.00037e-08 0)
(2.9 -4.47113e-09 0)
(2.9 2.47654e-09 0)
(2.9 -4.04895e-09 0)
(2.9 -3.07324e-09 0)
(2.9 -2.83875e-08 0)
(2.9 -3.73045e-08 0)
(2.9 -1.62451e-08 0)
(2.9 5.16298e-09 0)
(2.9 -1.14771e-08 0)
(2.9 -1.59733e-08 0)
(2.9 7.39894e-09 0)
(2.9 8.9719e-09 0)
(2.9 1.91259e-08 0)
(2.9 4.51625e-08 0)
(2.9 1.43984e-08 0)
(2.9 -1.4102e-08 0)
(2.9 -1.72979e-08 0)
(2.9 -2.39892e-08 0)
(2.9 -2.84059e-08 0)
(2.9 -1.45658e-08 0)
(2.9 -4.54056e-08 0)
(2.9 -6.64012e-08 0)
(2.9 -6.49082e-08 0)
(2.9 -8.9828e-08 0)
(2.9 -7.07214e-08 0)
(2.9 -5.41117e-08 0)
(2.9 -4.15167e-08 0)
(2.9 -6.54425e-08 0)
(2.9 -3.8945e-08 0)
(2.9 -1.46863e-08 0)
(2.9 -4.98483e-08 0)
(2.9 -2.97757e-08 0)
(2.9 -2.62719e-08 0)
(2.9 -3.6149e-08 0)
(2.9 -7.25541e-09 0)
(2.9 -2.16571e-09 0)
(2.9 -1.30674e-08 0)
(2.9 -3.83837e-08 0)
(2.9 -4.67149e-08 0)
(2.9 -5.82601e-08 0)
(2.9 -6.5036e-08 0)
(2.9 -4.61614e-08 0)
(2.9 -1.95206e-08 0)
(2.9 -6.7079e-09 0)
(2.9 -6.78724e-09 0)
(2.9 -1.49201e-08 0)
(2.9 -3.7185e-08 0)
(2.9 -4.73572e-08 0)
(2.9 -4.75436e-08 0)
(2.9 -5.30136e-08 0)
(2.9 -2.74703e-08 0)
(2.9 -2.54443e-08 0)
(2.9 -4.21488e-08 0)
(2.9 -3.33873e-08 0)
(2.9 -2.50709e-08 0)
(2.9 -3.65923e-08 0)
(2.9 -2.28254e-08 0)
(2.9 -8.28102e-09 0)
(2.9 5.13354e-09 0)
(2.9 1.17264e-08 0)
(2.9 8.18304e-09 0)
(2.9 -4.36581e-09 0)
(2.9 -1.37302e-08 0)
(2.9 -1.41792e-08 0)
(2.9 -2.39107e-08 0)
(2.9 -1.52361e-08 0)
(2.9 -1.45289e-08 0)
(2.9 -8.08627e-09 0)
(2.9 -9.31902e-09 0)
(2.9 -2.19724e-08 0)
(2.9 2.2963e-10 0)
(2.9 7.7308e-09 0)
(2.9 1.75174e-08 0)
(2.9 2.18351e-08 0)
(2.9 -2.61148e-09 0)
(2.9 -2.20478e-08 0)
(2.9 -2.05416e-08 0)
(2.9 -2.64852e-08 0)
(2.9 -3.35299e-08 0)
(2.9 -3.50897e-08 0)
(2.9 -3.92435e-08 0)
(2.9 -4.36217e-08 0)
(2.9 -6.05512e-08 0)
(2.9 -7.35712e-08 0)
(2.9 -6.59221e-08 0)
(2.9 -6.34793e-08 0)
(2.9 -5.65672e-08 0)
(2.9 -4.52501e-08 0)
(2.9 -3.37095e-08 0)
(2.9 -7.62952e-09 0)
(2.9 -2.65413e-08 0)
(2.9 -2.96039e-08 0)
(2.9 -3.03655e-08 0)
(2.9 -2.30657e-08 0)
(2.9 -9.67199e-09 0)
(2.9 -3.81271e-09 0)
(2.9 -1.57061e-08 0)
(2.9 -4.42613e-08 0)
(2.9 -4.73997e-08 0)
(2.9 -8.21416e-08 0)
(2.9 -9.76391e-08 0)
(2.9 -6.44214e-08 0)
(2.9 -2.9973e-08 0)
(2.9 -1.19357e-08 0)
(2.9 -1.03374e-08 0)
(2.9 -3.42035e-08 0)
(2.9 -7.16319e-08 0)
(2.9 -6.54721e-08 0)
(2.9 -6.10646e-08 0)
(2.9 -5.94828e-08 0)
(2.9 -3.72779e-08 0)
(2.9 -3.71346e-08 0)
(2.9 -5.05691e-08 0)
(2.9 -3.43701e-08 0)
(2.9 -2.85095e-08 0)
(2.9 -4.37751e-08 0)
(2.9 -2.31114e-08 0)
(2.9 -7.15025e-09 0)
(2.9 6.55565e-09 0)
(2.9 1.86072e-08 0)
(2.9 2.37212e-08 0)
(2.9 -1.21469e-08 0)
(2.9 -1.34123e-08 0)
(2.9 -1.38246e-08 0)
(2.9 -2.61304e-08 0)
(2.9 9.99271e-09 0)
(2.9 -1.25711e-08 0)
(2.9 -1.66977e-08 0)
(2.9 -2.62713e-09 0)
(2.9 3.75946e-09 0)
(2.9 -8.53202e-09 0)
(2.9 3.4278e-09 0)
(2.9 5.1581e-09 0)
(2.9 -7.54344e-09 0)
(2.9 -1.48814e-08 0)
(2.9 -1.30349e-08 0)
(2.9 -1.22999e-08 0)
(2.9 -2.47236e-08 0)
(2.9 -4.29049e-08 0)
(2.9 -3.97067e-08 0)
(2.9 -2.78945e-08 0)
(2.9 -2.82158e-08 0)
(2.9 -4.86591e-08 0)
(2.9 -4.4978e-08 0)
(2.9 -5.28796e-08 0)
(2.9 -7.72078e-08 0)
(2.9 -5.68134e-08 0)
(2.9 -1.68704e-08 0)
(2.9 -3.61033e-08 0)
(2.9 2.87477e-09 0)
(2.9 2.32162e-08 0)
(2.9 -3.3494e-08 0)
(2.9 -3.71394e-08 0)
(2.9 -5.63987e-09 0)
(2.9 -1.11033e-08 0)
(2.9 -5.92488e-09 0)
(2.9 -2.2516e-08 0)
(2.9 -5.88285e-08 0)
(2.9 -5.9085e-08 0)
(2.9 -1.1034e-07 0)
(2.9 -1.16278e-07 0)
(2.9 -7.19451e-08 0)
(2.9 -4.08454e-08 0)
(2.9 -1.8424e-08 0)
(2.9 -2.08209e-08 0)
(2.9 -5.31159e-08 0)
(2.9 -9.35461e-08 0)
(2.9 -7.11235e-08 0)
(2.9 -6.08925e-08 0)
(2.9 -5.70428e-08 0)
(2.9 -3.27914e-08 0)
(2.9 -2.94204e-08 0)
(2.9 -5.95903e-08 0)
(2.9 -2.74215e-08 0)
(2.9 -2.67134e-08 0)
(2.9 -6.0108e-08 0)
(2.9 -2.23581e-08 0)
(2.9 -5.83384e-09 0)
(2.9 8.55182e-09 0)
(2.9 2.36222e-08 0)
(2.9 4.18018e-08 0)
(2.9 -2.34388e-08 0)
(2.9 -7.81503e-09 0)
(2.9 -1.21279e-08 0)
(2.9 -3.80031e-08 0)
(2.9 -2.48979e-10 0)
(2.9 -1.57362e-08 0)
(2.9 -2.70104e-08 0)
(2.9 -2.05699e-09 0)
(2.9 2.16357e-08 0)
(2.9 -2.17279e-08 0)
(2.9 -4.24174e-09 0)
(2.9 -2.01128e-08 0)
(2.9 -3.401e-08 0)
(2.9 -2.08513e-08 0)
(2.9 8.23952e-10 0)
(2.9 -7.51746e-09 0)
(2.9 1.12382e-08 0)
(2.9 -1.17065e-08 0)
(2.9 -3.51756e-08 0)
(2.9 -1.83208e-08 0)
(2.9 -2.05227e-09 0)
(2.9 -2.95196e-08 0)
(2.9 -9.60821e-09 0)
(2.9 -3.99173e-08 0)
(2.9 -8.98252e-08 0)
(2.9 -4.97347e-08 0)
(2.9 -3.0634e-08 0)
(2.9 -6.07492e-08 0)
(2.9 -1.49425e-09 0)
(2.9 2.76572e-08 0)
(2.9 -4.89864e-08 0)
(2.9 -3.94381e-08 0)
(2.9 -1.62109e-08 0)
(2.9 -1.15056e-08 0)
(2.9 -6.714e-09 0)
(2.9 -1.88889e-08 0)
(2.9 -3.96934e-08 0)
(2.9 -5.67241e-08 0)
(2.9 -7.12163e-08 0)
(2.9 -7.64453e-08 0)
(2.9 -7.42689e-08 0)
(2.9 -5.33898e-08 0)
(2.9 -2.88705e-08 0)
(2.9 -3.05717e-08 0)
(2.9 -4.77307e-08 0)
(2.9 -5.65538e-08 0)
(2.9 -5.48259e-08 0)
(2.9 -3.45433e-08 0)
(2.9 -6.63574e-11 0)
(2.9 -9.47506e-09 0)
(2.9 -1.17448e-08 0)
(2.9 -4.49312e-08 0)
(2.9 -2.01755e-08 0)
(2.9 -2.1529e-08 0)
(2.9 -5.2062e-08 0)
(2.9 -2.06683e-08 0)
(2.9 -5.11221e-09 0)
(2.9 8.70897e-09 0)
(2.9 2.13391e-08 0)
(2.9 3.32954e-08 0)
(2.9 -8.16469e-09 0)
(2.9 2.47542e-10 0)
(2.9 -1.75164e-10 0)
(2.9 -1.612e-08 0)
(2.9 1.0026e-09 0)
(2.9 -1.81984e-08 0)
(2.9 -4.47238e-08 0)
(2.9 -9.51129e-09 0)
(2.9 9.37402e-09 0)
(2.9 -2.85783e-09 0)
(2.9 -1.54541e-08 0)
(2.9 -4.14398e-08 0)
(2.9 -4.50482e-08 0)
(2.9 -1.88137e-08 0)
(2.9 1.62076e-08 0)
(2.9 1.37815e-08 0)
(2.9 3.43637e-08 0)
(2.9 1.45183e-08 0)
(2.9 -3.83512e-08 0)
(2.9 -9.31162e-09 0)
(2.9 4.15048e-08 0)
(2.9 2.64212e-08 0)
(2.9 2.96402e-08 0)
(2.9 -2.56009e-08 0)
(2.9 -7.16023e-08 0)
(2.9 -4.4458e-08 0)
(2.9 -4.10704e-08 0)
(2.9 -6.31625e-08 0)
(2.9 -1.35036e-08 0)
(2.9 2.10958e-09 0)
(2.9 -3.2056e-08 0)
(2.9 -3.63113e-08 0)
(2.9 -1.59434e-08 0)
(2.9 -8.54818e-09 0)
(2.9 -5.34717e-09 0)
(2.9 -1.47316e-08 0)
(2.9 -1.75237e-08 0)
(2.9 -3.72687e-08 0)
(2.9 -1.698e-08 0)
(2.9 -3.75549e-08 0)
(2.9 -7.44786e-08 0)
(2.9 -5.72116e-08 0)
(2.9 -3.49245e-08 0)
(2.9 -2.83472e-08 0)
(2.9 -2.47209e-08 0)
(2.9 -1.05947e-08 0)
(2.9 -2.60509e-08 0)
(2.9 1.67898e-09 0)
(2.9 1.40013e-08 0)
(2.9 1.06069e-08 0)
(2.9 -2.96209e-09 0)
(2.9 -2.86185e-09 0)
(2.9 -1.39397e-08 0)
(2.9 -2.19831e-08 0)
(2.9 -1.06386e-08 0)
(2.9 -1.69988e-08 0)
(2.9 -5.22018e-09 0)
(2.9 6.81294e-09 0)
(2.9 2.04834e-08 0)
(2.9 2.65317e-08 0)
(2.9 3.33916e-08 0)
(2.9 1.07802e-08 0)
(2.9 1.87273e-08 0)
(2.9 4.21883e-08 0)
(2.9 9.93541e-09 0)
(2.9 -1.5118e-08 0)
(2.9 -2.11287e-08 0)
(2.9 -7.68287e-09 0)
(2.9 3.08739e-09 0)
(2.9 9.59421e-09 0)
(2.9 -2.51079e-08 0)
(2.9 -4.38527e-08 0)
(2.9 -4.05303e-08 0)
(2.9 -1.03354e-08 0)
(2.9 2.56756e-08 0)
(2.9 4.67314e-08 0)
(2.9 1.09821e-08 0)
(2.9 -1.09634e-09 0)
(2.9 -7.18775e-09 0)
(2.9 -4.39676e-09 0)
(2.9 5.03631e-08 0)
(2.9 6.55153e-08 0)
(2.9 1.50354e-08 0)
(2.9 -2.37278e-08 0)
(2.9 -2.28158e-08 0)
(2.9 -4.43968e-08 0)
(2.9 -4.67574e-08 0)
(2.9 -2.57854e-08 0)
(2.9 -2.02786e-08 0)
(2.9 -1.77173e-08 0)
(2.9 -1.30818e-08 0)
(2.9 -3.77852e-08 0)
(2.9 -1.40653e-08 0)
(2.9 -3.63237e-09 0)
(2.9 -2.31838e-09 0)
(2.9 -1.5776e-08 0)
(2.9 -2.47249e-08 0)
(2.9 -1.5113e-08 0)
(2.9 -6.5942e-09 0)
(2.9 -5.00761e-08 0)
(2.9 -7.174e-08 0)
(2.9 -4.72188e-08 0)
(2.9 -3.02975e-08 0)
(2.9 -1.61725e-08 0)
(2.9 9.53577e-11 0)
(2.9 -1.45568e-08 0)
(2.9 -7.10666e-09 0)
(2.9 2.81591e-08 0)
(2.9 9.2821e-09 0)
(2.9 1.32993e-08 0)
(2.9 -3.62037e-09 0)
(2.9 -6.11114e-09 0)
(2.9 -1.69379e-08 0)
(2.9 -2.55778e-08 0)
(2.9 -7.16681e-09 0)
(2.9 -1.60065e-08 0)
(2.9 -5.82798e-09 0)
(2.9 5.4278e-09 0)
(2.9 9.6504e-09 0)
(2.9 6.70649e-09 0)
(2.9 2.63894e-08 0)
(2.9 1.41168e-08 0)
(2.9 3.069e-08 0)
(2.9 5.1619e-08 0)
(2.9 1.30404e-08 0)
(2.9 -4.3871e-09 0)
(2.9 7.88894e-09 0)
(2.9 -2.12447e-09 0)
(2.9 -5.61694e-09 0)
(2.9 -1.88108e-08 0)
(2.9 -2.83008e-08 0)
(2.9 -3.13426e-08 0)
(2.9 -3.12243e-08 0)
(2.9 -1.42266e-09 0)
(2.9 1.99462e-08 0)
(2.9 3.22313e-08 0)
(2.9 -7.32754e-09 0)
(2.9 -2.56516e-09 0)
(2.9 2.70954e-08 0)
(2.9 3.6209e-08 0)
(2.9 6.0619e-08 0)
(2.9 4.92406e-08 0)
(2.9 2.46258e-08 0)
(2.9 -2.15557e-08 0)
(2.9 -1.36123e-08 0)
(2.9 -5.50504e-08 0)
(2.9 -4.3922e-08 0)
(2.9 -2.01785e-08 0)
(2.9 -2.76267e-08 0)
(2.9 -2.96251e-08 0)
(2.9 -2.59829e-08 0)
(2.9 -5.71009e-09 0)
(2.9 -1.5385e-08 0)
(2.9 2.26515e-09 0)
(2.9 1.46219e-09 0)
(2.9 -1.46177e-08 0)
(2.9 -2.99357e-08 0)
(2.9 4.79381e-09 0)
(2.9 -4.31826e-09 0)
(2.9 -2.34329e-08 0)
(2.9 -2.2287e-08 0)
(2.9 -2.61191e-08 0)
(2.9 -1.77151e-08 0)
(2.9 -7.50876e-10 0)
(2.9 1.63265e-08 0)
(2.9 7.65885e-09 0)
(2.9 3.59029e-08 0)
(2.9 3.63735e-08 0)
(2.9 2.92466e-08 0)
(2.9 1.09665e-08 0)
(2.9 -4.66028e-09 0)
(2.9 -1.05115e-08 0)
(2.9 -2.16727e-08 0)
(2.9 -2.79851e-08 0)
(2.9 -4.43731e-08 0)
(2.9 -1.99347e-08 0)
(2.9 -6.87629e-09 0)
(2.9 -1.06251e-09 0)
(2.9 -9.80758e-09 0)
(2.9 -1.54851e-08 0)
(2.9 -2.41148e-08 0)
(2.9 7.24287e-09 0)
(2.9 2.43215e-08 0)
(2.9 1.19366e-08 0)
(2.9 1.17253e-08 0)
(2.9 7.85019e-09 0)
(2.9 -5.20752e-09 0)
(2.9 1.40896e-09 0)
(2.9 -1.24138e-08 0)
(2.9 -4.8599e-08 0)
(2.9 -2.64811e-08 0)
(2.9 -1.46468e-08 0)
(2.9 -3.13445e-08 0)
(2.9 4.16099e-09 0)
(2.9 2.29857e-09 0)
(2.9 -5.18255e-09 0)
(2.9 -2.03495e-08 0)
(2.9 2.44486e-09 0)
(2.9 1.65697e-08 0)
(2.9 7.00756e-08 0)
(2.9 6.76232e-08 0)
(2.9 5.81106e-08 0)
(2.9 4.05545e-08 0)
(2.9 -1.98764e-08 0)
(2.9 -4.46211e-08 0)
(2.9 -2.9107e-08 0)
(2.9 -3.16711e-08 0)
(2.9 -5.59317e-08 0)
(2.9 -3.29871e-08 0)
(2.9 -3.08495e-08 0)
(2.9 -4.25863e-08 0)
(2.9 2.47348e-08 0)
(2.9 1.71814e-08 0)
(2.9 1.02261e-08 0)
(2.9 5.12799e-09 0)
(2.9 -1.99491e-08 0)
(2.9 -1.66579e-09 0)
(2.9 1.98412e-08 0)
(2.9 3.01724e-08 0)
(2.9 4.74473e-08 0)
(2.9 2.8297e-08 0)
(2.9 -6.93442e-09 0)
(2.9 -3.38567e-09 0)
(2.9 7.90791e-09 0)
(2.9 2.16353e-08 0)
(2.9 5.97043e-08 0)
(2.9 6.35318e-08 0)
(2.9 3.34969e-08 0)
(2.9 5.46518e-08 0)
(2.9 1.17937e-08 0)
(2.9 -1.12813e-08 0)
(2.9 -9.50957e-09 0)
(2.9 -2.31765e-08 0)
(2.9 -3.10954e-08 0)
(2.9 -3.91499e-08 0)
(2.9 -2.05993e-08 0)
(2.9 -8.99551e-09 0)
(2.9 -1.06806e-08 0)
(2.9 -2.15336e-08 0)
(2.9 -3.23721e-08 0)
(2.9 -2.59402e-08 0)
(2.9 -3.25977e-09 0)
(2.9 9.87002e-09 0)
(2.9 1.81199e-08 0)
(2.9 1.57123e-08 0)
(2.9 2.20842e-08 0)
(2.9 1.90128e-08 0)
(2.9 7.69862e-09 0)
(2.9 -1.9496e-08 0)
(2.9 -3.62864e-08 0)
(2.9 -1.9298e-08 0)
(2.9 2.69773e-09 0)
(2.9 -5.902e-09 0)
(2.9 7.34288e-09 0)
(2.9 -1.16221e-08 0)
(2.9 -2.24249e-08 0)
(2.9 -3.04813e-08 0)
(2.9 1.11064e-08 0)
(2.9 3.80538e-08 0)
(2.9 6.36237e-08 0)
(2.9 5.72641e-08 0)
(2.9 5.97594e-08 0)
(2.9 1.85252e-08 0)
(2.9 -2.9705e-08 0)
(2.9 -3.63038e-08 0)
(2.9 3.04256e-09 0)
(2.9 -2.07325e-08 0)
(2.9 -5.51553e-08 0)
(2.9 -2.82674e-08 0)
(2.9 -2.97843e-08 0)
(2.9 -2.85125e-08 0)
(2.9 1.7505e-08 0)
(2.9 4.28701e-08 0)
(2.9 1.56005e-08 0)
(2.9 7.5896e-09 0)
(2.9 3.1711e-09 0)
(2.9 2.43055e-08 0)
(2.9 2.11504e-08 0)
(2.9 5.92494e-08 0)
(2.9 7.73785e-08 0)
(2.9 2.20848e-08 0)
(2.9 -4.54022e-09 0)
(2.9 6.48204e-09 0)
(2.9 8.59751e-09 0)
(2.9 2.21032e-08 0)
(2.9 6.23893e-08 0)
(2.9 4.23677e-08 0)
(2.9 3.00435e-08 0)
(2.9 5.26828e-08 0)
(2.9 7.34373e-09 0)
(2.9 -1.74289e-08 0)
(2.9 -4.5407e-08 0)
(2.9 -2.71411e-08 0)
(2.9 -2.99798e-08 0)
(2.9 -3.52031e-08 0)
(2.9 -1.83539e-08 0)
(2.9 -1.07709e-08 0)
(2.9 -1.43203e-08 0)
(2.9 -2.59304e-08 0)
(2.9 -3.84865e-08 0)
(2.9 -1.34703e-08 0)
(2.9 -1.1088e-08 0)
(2.9 2.54889e-09 0)
(2.9 3.54298e-08 0)
(2.9 2.218e-08 0)
(2.9 3.28541e-08 0)
(2.9 2.99315e-08 0)
(2.9 6.29671e-09 0)
(2.9 -2.29692e-08 0)
(2.9 -1.48888e-08 0)
(2.9 -8.7183e-09 0)
(2.9 1.86351e-08 0)
(2.9 4.92969e-08 0)
(2.9 1.14046e-08 0)
(2.9 -1.40776e-08 0)
(2.9 -2.58571e-08 0)
(2.9 -4.5909e-08 0)
(2.9 1.77121e-08 0)
(2.9 4.45113e-08 0)
(2.9 5.07302e-08 0)
(2.9 3.42226e-08 0)
(2.9 2.64252e-08 0)
(2.9 -5.50925e-09 0)
(2.9 -3.89813e-08 0)
(2.9 -3.26955e-08 0)
(2.9 -3.47664e-09 0)
(2.9 -9.3912e-09 0)
(2.9 -2.02926e-08 0)
(2.9 -1.93e-08 0)
(2.9 -2.43165e-08 0)
(2.9 -2.20227e-08 0)
(2.9 1.22761e-08 0)
(2.9 2.85837e-08 0)
(2.9 1.5154e-08 0)
(2.9 8.3184e-09 0)
(2.9 2.60189e-08 0)
(2.9 -6.65167e-10 0)
(2.9 5.82614e-09 0)
(2.9 4.29712e-08 0)
(2.9 6.04385e-08 0)
(2.9 3.77228e-08 0)
(2.9 2.37894e-08 0)
(2.9 1.25421e-08 0)
(2.9 9.26868e-09 0)
(2.9 1.42688e-08 0)
(2.9 2.16645e-08 0)
(2.9 2.30069e-08 0)
(2.9 2.15137e-08 0)
(2.9 1.12275e-08 0)
(2.9 -2.11646e-09 0)
(2.9 -1.51339e-08 0)
(2.9 -4.59869e-08 0)
(2.9 -2.55704e-08 0)
(2.9 -2.26685e-08 0)
(2.9 -3.91484e-08 0)
(2.9 -1.62533e-08 0)
(2.9 -1.03304e-08 0)
(2.9 -1.28193e-08 0)
(2.9 -2.1705e-08 0)
(2.9 -3.17917e-08 0)
(2.9 -3.01977e-08 0)
(2.9 -9.11348e-09 0)
(2.9 3.77076e-09 0)
(2.9 2.25486e-08 0)
(2.9 2.54767e-08 0)
(2.9 3.12141e-08 0)
(2.9 2.43558e-08 0)
(2.9 -1.67032e-09 0)
(2.9 -1.73571e-08 0)
(2.9 -2.74895e-08 0)
(2.9 1.53045e-09 0)
(2.9 2.67388e-08 0)
(2.9 6.18952e-08 0)
(2.9 1.48332e-08 0)
(2.9 -7.76496e-09 0)
(2.9 -1.94173e-08 0)
(2.9 -3.50628e-08 0)