/*--------------------------------*- C++ -*----------------------------------*\
| =========                 |                                                 |
| \\      /  F ield         | OpenFOAM: The Open Source CFD Toolbox           |
|  \\    /   O peration     | Version:  2412                                  |
|   \\  /    A nd           | Website:  www.openfoam.com                      |
|    \\/     M anipulation  |                                                 |
\*---------------------------------------------------------------------------*/
FoamFile
{
    version     2.0;
    format      ascii;
    arch        "LSB;label=32;scalar=64";
    class       volVectorField;
    location    "6.2576e-05";
    object      U;
}
// * * * * * * * * * * * * * * * * * * * * * * * * * * * * * * * * * * * * * //

dimensions      [0 1 -1 0 0 0 0];

internalField   nonuniform List<vector> 
1800
(
(2.9 -4.8044e-14 0)
(2.9 1.48976e-14 0)
(2.9 3.20531e-14 0)
(2.9 -3.97202e-14 0)
(2.9 -3.58449e-14 0)
(2.9 -5.27433e-14 0)
(2.9 -8.4276e-14 0)
(2.9 -4.30864e-14 0)
(2.9 -3.6188e-14 0)
(2.9 -2.89941e-14 0)
(2.9 -4.94965e-15 0)
(2.9 -5.96155e-14 0)
(2.9 -5.71333e-14 0)
(2.9 -3.19187e-14 0)
(2.9 -5.13486e-14 0)
(2.9 1.80448e-15 0)
(2.9 -2.38523e-14 0)
(2.9 -2.82047e-14 0)
(2.9 -4.02879e-14 0)
(2.9 -1.64503e-14 0)
(2.9 -2.93731e-14 0)
(2.9 -1.44983e-14 0)
(2.9 -2.72153e-14 0)
(2.9 1.414e-14 0)
(2.9 -1.39866e-14 0)
(2.9 -5.73379e-14 0)
(2.9 -4.96071e-14 0)
(2.9 -1.7915e-14 0)
(2.9 4.91743e-14 0)
(2.9 7.89088e-14 0)
(2.9 -9.25148e-15 0)
(2.9 1.8072e-14 0)
(2.9 -6.32469e-14 0)
(2.9 -6.46565e-14 0)
(2.9 -1.40655e-14 0)
(2.9 -1.606e-14 0)
(2.9 -4.38461e-15 0)
(2.9 1.82222e-14 0)
(2.9 1.48893e-14 0)
(2.9 -9.94642e-15 0)
(2.9 -4.39201e-15 0)
(2.9 3.72016e-14 0)
(2.9 2.53046e-15 0)
(2.9 -2.03034e-14 0)
(2.9 -6.22286e-14 0)
(2.9 -3.32606e-14 0)
(2.9 1.92788e-14 0)
(2.9 5.84485e-14 0)
(2.9 2.60738e-14 0)
(2.9 6.67686e-14 0)
(2.9 1.53713e-14 0)
(2.9 -2.50479e-14 0)
(2.9 2.00764e-14 0)
(2.9 -3.83631e-15 0)
(2.9 -1.00144e-15 0)
(2.9 -3.02263e-15 0)
(2.9 -6.67417e-14 0)
(2.9 -2.76307e-14 0)
(2.9 -7.19729e-14 0)
(2.9 -9.70826e-14 0)
(2.9 -1.00802e-13 0)
(2.9 3.88043e-14 0)
(2.9 2.91316e-14 0)
(2.9 -5.86001e-14 0)
(2.9 -6.64325e-14 0)
(2.9 -1.64788e-13 0)
(2.9 -1.48902e-13 0)
(2.9 -1.35289e-13 0)
(2.9 -4.3088e-14 0)
(2.9 -1.43862e-14 0)
(2.9 -1.25288e-14 0)
(2.9 -1.13952e-13 0)
(2.9 -7.4826e-14 0)
(2.9 -3.25963e-14 0)
(2.9 -3.50427e-14 0)
(2.9 2.39322e-14 0)
(2.9 -4.79377e-14 0)
(2.9 -6.10139e-14 0)
(2.9 -7.21285e-14 0)
(2.9 -1.96555e-14 0)
(2.9 -5.82344e-14 0)
(2.9 -4.30939e-14 0)
(2.9 -1.50261e-14 0)
(2.9 6.76823e-14 0)
(2.9 -4.01278e-14 0)
(2.9 -1.56694e-13 0)
(2.9 -1.37539e-13 0)
(2.9 -5.75651e-14 0)
(2.9 4.79385e-14 0)
(2.9 1.25672e-13 0)
(2.9 -1.29418e-14 0)
(2.9 3.69176e-14 0)
(2.9 -8.6448e-14 0)
(2.9 -1.76542e-13 0)
(2.9 -5.41072e-14 0)
(2.9 -5.31336e-14 0)
(2.9 -6.34339e-15 0)
(2.9 5.71685e-14 0)
(2.9 -4.29136e-15 0)
(2.9 -3.44678e-14 0)
(2.9 -2.01494e-14 0)
(2.9 3.18494e-14 0)
(2.9 1.5807e-14 0)
(2.9 -2.74319e-16 0)
(2.9 -3.10753e-14 0)
(2.9 -1.07014e-13 0)
(2.9 4.23318e-14 0)
(2.9 6.98131e-14 0)
(2.9 9.96987e-14 0)
(2.9 1.36667e-13 0)
(2.9 -5.07243e-15 0)
(2.9 -3.91457e-14 0)
(2.9 3.78179e-15 0)
(2.9 -6.19749e-14 0)
(2.9 -1.22364e-14 0)
(2.9 3.66856e-14 0)
(2.9 -6.45164e-14 0)
(2.9 -3.08477e-14 0)
(2.9 -1.44566e-13 0)
(2.9 -1.32641e-13 0)
(2.9 -3.86049e-14 0)
(2.9 2.77499e-15 0)
(2.9 5.55592e-15 0)
(2.9 -3.35279e-15 0)
(2.9 -3.16341e-14 0)
(2.9 -1.076e-13 0)
(2.9 -1.18559e-13 0)
(2.9 -5.5942e-14 0)
(2.9 1.88407e-14 0)
(2.9 -4.366e-14 0)
(2.9 -3.96723e-14 0)
(2.9 -5.63618e-14 0)
(2.9 -2.12265e-14 0)
(2.9 -2.66217e-14 0)
(2.9 2.60791e-15 0)
(2.9 5.44816e-14 0)
(2.9 7.02648e-15 0)
(2.9 -2.79361e-14 0)
(2.9 -2.74533e-14 0)
(2.9 -2.82776e-14 0)
(2.9 -6.39037e-15 0)
(2.9 3.18351e-14 0)
(2.9 5.53982e-14 0)
(2.9 3.51715e-14 0)
(2.9 -1.15793e-13 0)
(2.9 -1.61651e-13 0)
(2.9 -5.46003e-14 0)
(2.9 -4.38552e-14 0)
(2.9 -6.51874e-15 0)
(2.9 2.98541e-14 0)
(2.9 -1.94316e-14 0)
(2.9 -1.03599e-14 0)
(2.9 -5.07357e-14 0)
(2.9 -9.43662e-14 0)
(2.9 -4.67055e-14 0)
(2.9 -4.81657e-14 0)
(2.9 7.82541e-16 0)
(2.9 3.47885e-14 0)
(2.9 -3.27535e-14 0)
(2.9 -1.1358e-13 0)
(2.9 -1.62581e-14 0)
(2.9 -4.01019e-14 0)
(2.9 4.13134e-14 0)
(2.9 3.53818e-14 0)
(2.9 1.88406e-14 0)
(2.9 -5.34083e-14 0)
(2.9 3.02944e-14 0)
(2.9 5.34867e-14 0)
(2.9 4.90978e-14 0)
(2.9 4.54282e-14 0)
(2.9 -6.85945e-15 0)
(2.9 -1.68341e-14 0)
(2.9 -6.65639e-16 0)
(2.9 -3.4706e-14 0)
(2.9 -1.57472e-14 0)
(2.9 -3.4034e-14 0)
(2.9 -3.37968e-15 0)
(2.9 4.37635e-15 0)
(2.9 -6.49801e-14 0)
(2.9 -7.65994e-14 0)
(2.9 1.65808e-14 0)
(2.9 -6.90034e-14 0)
(2.9 2.61242e-15 0)
(2.9 -5.64195e-14 0)
(2.9 -3.74888e-14 0)
(2.9 -3.54732e-14 0)
(2.9 -8.97325e-14 0)
(2.9 -5.13394e-14 0)
(2.9 6.17855e-15 0)
(2.9 -8.71469e-14 0)
(2.9 -6.13972e-14 0)
(2.9 -6.81817e-14 0)
(2.9 -1.79361e-14 0)
(2.9 -5.61163e-14 0)
(2.9 -1.68656e-14 0)
(2.9 1.88119e-14 0)
(2.9 -6.99372e-16 0)
(2.9 2.60704e-14 0)
(2.9 6.08836e-14 0)
(2.9 1.09712e-14 0)
(2.9 6.9062e-14 0)
(2.9 5.93464e-14 0)
(2.9 1.3616e-14 0)
(2.9 -7.19705e-15 0)
(2.9 -4.37484e-14 0)
(2.9 -7.31127e-14 0)
(2.9 2.12452e-14 0)
(2.9 -1.58691e-14 0)
(2.9 -1.09499e-14 0)
(2.9 -8.60279e-15 0)
(2.9 -8.28955e-15 0)
(2.9 1.11796e-14 0)
(2.9 -3.04031e-14 0)
(2.9 3.26119e-14 0)
(2.9 -3.89106e-14 0)
(2.9 1.44539e-15 0)
(2.9 3.27468e-14 0)
(2.9 3.97817e-14 0)
(2.9 -2.57793e-14 0)
(2.9 -7.1711e-14 0)
(2.9 -1.40259e-14 0)
(2.9 -4.30123e-14 0)
(2.9 -4.70764e-14 0)
(2.9 -2.4e-14 0)
(2.9 9.24398e-15 0)
(2.9 -6.70246e-14 0)
(2.9 -1.83226e-14 0)
(2.9 2.70732e-14 0)
(2.9 -5.59822e-14 0)
(2.9 -8.9204e-14 0)
(2.9 -4.98969e-14 0)
(2.9 4.05618e-16 0)
(2.9 -9.14786e-15 0)
(2.9 3.31581e-14 0)
(2.9 -2.51466e-15 0)
(2.9 -2.7601e-14 0)
(2.9 2.00722e-14 0)
(2.9 -2.39485e-14 0)
(2.9 1.76835e-14 0)
(2.9 2.7807e-14 0)
(2.9 -1.4438e-14 0)
(2.9 -1.0872e-13 0)
(2.9 -8.69839e-15 0)
(2.9 -6.35923e-14 0)
(2.9 -4.55482e-15 0)
(2.9 6.23062e-15 0)
(2.9 -2.30798e-14 0)
(2.9 -5.85456e-14 0)
(2.9 -2.2785e-14 0)
(2.9 -7.83663e-14 0)
(2.9 -6.31619e-14 0)
(2.9 -4.47623e-14 0)
(2.9 4.16295e-14 0)
(2.9 -7.58531e-16 0)
(2.9 -1.346e-14 0)
(2.9 -4.6751e-14 0)
(2.9 9.46974e-16 0)
(2.9 1.53828e-14 0)
(2.9 9.78965e-14 0)
(2.9 4.5907e-14 0)
(2.9 6.66759e-14 0)
(2.9 3.55965e-14 0)
(2.9 -7.55382e-14 0)
(2.9 -8.69692e-14 0)
(2.9 1.22815e-14 0)
(2.9 1.31804e-14 0)
(2.9 4.87221e-14 0)
(2.9 -1.79789e-14 0)
(2.9 -2.01818e-14 0)
(2.9 7.64727e-15 0)
(2.9 3.6508e-14 0)
(2.9 5.97726e-14 0)
(2.9 1.56995e-14 0)
(2.9 8.07776e-14 0)
(2.9 -2.66924e-15 0)
(2.9 1.31509e-14 0)
(2.9 6.43215e-14 0)
(2.9 2.14285e-14 0)
(2.9 -6.01144e-16 0)
(2.9 -4.58739e-14 0)
(2.9 -5.97393e-14 0)
(2.9 -5.19386e-14 0)
(2.9 -1.49478e-13 0)
(2.9 -8.2386e-14 0)
(2.9 -5.48932e-14 0)
(2.9 -4.01967e-14 0)
(2.9 -3.84278e-14 0)
(2.9 -2.5776e-14 0)
(2.9 -8.31709e-14 0)
(2.9 -7.90756e-14 0)
(2.9 -2.18695e-14 0)
(2.9 3.08326e-14 0)
(2.9 -4.94527e-14 0)
(2.9 -2.05653e-14 0)
(2.9 2.89442e-14 0)
(2.9 3.34783e-14 0)
(2.9 2.41523e-14 0)
(2.9 1.96685e-15 0)
(2.9 1.47325e-14 0)
(2.9 9.58997e-14 0)
(2.9 -3.6794e-14 0)
(2.9 -8.85262e-14 0)
(2.9 -7.55808e-14 0)
(2.9 -2.28306e-14 0)
(2.9 6.36209e-14 0)
(2.9 1.17183e-14 0)
(2.9 3.9562e-14 0)
(2.9 4.46881e-14 0)
(2.9 -5.86407e-14 0)
(2.9 -8.0223e-14 0)
(2.9 -1.01572e-13 0)
(2.9 -8.90202e-15 0)
(2.9 -1.32961e-14 0)
(2.9 2.37014e-14 0)
(2.9 3.30754e-14 0)
(2.9 -3.61123e-14 0)
(2.9 -2.86644e-14 0)
(2.9 -4.05791e-15 0)
(2.9 2.647e-14 0)
(2.9 1.82981e-15 0)
(2.9 -3.15955e-14 0)
(2.9 -4.66473e-14 0)
(2.9 -4.63199e-14 0)
(2.9 -3.55559e-14 0)
(2.9 -4.00056e-14 0)
(2.9 7.44631e-15 0)
(2.9 4.34969e-14 0)
(2.9 -3.02738e-15 0)
(2.9 5.59727e-16 0)
(2.9 1.17492e-14 0)
(2.9 -2.02189e-14 0)
(2.9 1.49938e-14 0)
(2.9 1.82599e-14 0)
(2.9 6.80346e-16 0)
(2.9 -6.80925e-14 0)
(2.9 -8.21005e-14 0)
(2.9 -5.03828e-14 0)
(2.9 -5.18869e-14 0)
(2.9 -7.03224e-14 0)
(2.9 -6.11863e-14 0)
(2.9 -1.07485e-13 0)
(2.9 -3.74991e-14 0)
(2.9 -8.21374e-14 0)
(2.9 -1.59221e-14 0)
(2.9 -2.44677e-14 0)
(2.9 3.9832e-14 0)
(2.9 -1.60903e-14 0)
(2.9 -6.54288e-14 0)
(2.9 -8.31148e-14 0)
(2.9 -1.72571e-14 0)
(2.9 4.09322e-14 0)
(2.9 1.4287e-14 0)
(2.9 -3.68782e-14 0)
(2.9 -5.80717e-14 0)
(2.9 -1.7959e-14 0)
(2.9 3.69201e-15 0)
(2.9 2.15902e-14 0)
(2.9 2.73936e-14 0)
(2.9 -1.92329e-14 0)
(2.9 1.20724e-15 0)
(2.9 -2.63715e-14 0)
(2.9 -2.67617e-14 0)
(2.9 -1.29593e-13 0)
(2.9 -1.07022e-14 0)
(2.9 7.95283e-14 0)
(2.9 2.57887e-14 0)
(2.9 7.54361e-14 0)
(2.9 7.3287e-14 0)
(2.9 -1.36728e-14 0)
(2.9 -5.21851e-14 0)
(2.9 -6.25004e-14 0)
(2.9 -4.75528e-14 0)
(2.9 -9.8166e-14 0)
(2.9 4.52723e-15 0)
(2.9 2.16023e-14 0)
(2.9 -2.23139e-14 0)
(2.9 -2.40748e-14 0)
(2.9 2.40995e-14 0)
(2.9 -4.30567e-14 0)
(2.9 -5.22458e-14 0)
(2.9 -9.48172e-14 0)
(2.9 -9.60114e-14 0)
(2.9 2.0366e-14 0)
(2.9 -4.3024e-14 0)
(2.9 -3.07767e-14 0)
(2.9 1.70614e-14 0)
(2.9 7.05183e-14 0)
(2.9 1.07009e-14 0)
(2.9 -4.35914e-16 0)
(2.9 1.24588e-14 0)
(2.9 -6.06614e-14 0)
(2.9 5.39761e-15 0)
(2.9 9.09348e-15 0)
(2.9 -1.68705e-14 0)
(2.9 -9.13305e-14 0)
(2.9 -1.56025e-13 0)
(2.9 -1.10238e-13 0)
(2.9 -5.55708e-14 0)
(2.9 -1.3395e-13 0)
(2.9 -6.0413e-14 0)
(2.9 -8.78473e-14 0)
(2.9 1.25209e-14 0)
(2.9 1.23562e-14 0)
(2.9 8.60975e-14 0)
(2.9 3.96467e-14 0)
(2.9 -1.59688e-15 0)
(2.9 -5.40291e-14 0)
(2.9 -4.55146e-14 0)
(2.9 -8.81226e-14 0)
(2.9 -1.0545e-14 0)
(2.9 -1.13943e-14 0)
(2.9 -5.06647e-14 0)
(2.9 -2.12548e-14 0)
(2.9 -7.84864e-14 0)
(2.9 -8.62901e-14 0)
(2.9 -6.80696e-14 0)
(2.9 -6.00866e-15 0)
(2.9 -1.95378e-14 0)
(2.9 -2.34221e-14 0)
(2.9 -3.53036e-14 0)
(2.9 -5.99393e-15 0)
(2.9 4.61392e-14 0)
(2.9 -4.36507e-14 0)
(2.9 -3.53701e-14 0)
(2.9 2.30964e-14 0)
(2.9 8.79754e-14 0)
(2.9 8.69558e-14 0)
(2.9 -1.74997e-16 0)
(2.9 8.5992e-15 0)
(2.9 -1.08386e-14 0)
(2.9 -2.94829e-14 0)
(2.9 -7.48589e-14 0)
(2.9 -1.30495e-13 0)
(2.9 -8.67424e-14 0)
(2.9 -2.86788e-14 0)
(2.9 2.52459e-14 0)
(2.9 2.24624e-14 0)
(2.9 7.63604e-15 0)
(2.9 -6.61362e-14 0)
(2.9 -9.07445e-14 0)
(2.9 -5.51576e-14 0)
(2.9 -1.03026e-14 0)
(2.9 4.41932e-14 0)
(2.9 -2.819e-15 0)
(2.9 1.14483e-14 0)
(2.9 4.81192e-14 0)
(2.9 7.15897e-14 0)
(2.9 1.49204e-14 0)
(2.9 6.62232e-14 0)
(2.9 1.04088e-14 0)
(2.9 -2.69184e-14 0)
(2.9 5.53709e-14 0)
(2.9 4.16346e-14 0)
(2.9 7.15782e-15 0)
(2.9 -3.74766e-14 0)
(2.9 -4.63654e-14 0)
(2.9 -3.54365e-14 0)
(2.9 1.62731e-14 0)
(2.9 -3.02862e-14 0)
(2.9 -3.12554e-14 0)
(2.9 -2.99632e-15 0)
(2.9 4.3336e-14 0)
(2.9 5.44588e-14 0)
(2.9 7.98615e-14 0)
(2.9 5.09017e-14 0)
(2.9 -3.82314e-14 0)
(2.9 -7.05565e-14 0)
(2.9 -1.81501e-14 0)
(2.9 -2.45372e-14 0)
(2.9 -5.29915e-14 0)
(2.9 1.13785e-15 0)
(2.9 -1.83933e-14 0)
(2.9 -5.87439e-14 0)
(2.9 -4.96688e-14 0)
(2.9 -5.73953e-14 0)
(2.9 -4.95688e-14 0)
(2.9 -5.67478e-14 0)
(2.9 -2.26166e-14 0)
(2.9 -4.47829e-14 0)
(2.9 -2.80366e-14 0)
(2.9 -2.72399e-15 0)
(2.9 7.58437e-14 0)
(2.9 -1.11136e-14 0)
(2.9 -1.08827e-15 0)
(2.9 -3.97392e-14 0)
(2.9 1.98978e-14 0)
(2.9 2.07085e-14 0)
(2.9 -4.46036e-14 0)
(2.9 2.32983e-14 0)
(2.9 1.69911e-14 0)
(2.9 -4.30053e-15 0)
(2.9 -7.36923e-14 0)
(2.9 -9.10393e-14 0)
(2.9 -1.15504e-13 0)
(2.9 -7.22764e-14 0)
(2.9 9.21604e-15 0)
(2.9 3.17145e-14 0)
(2.9 2.15086e-14 0)
(2.9 -3.09462e-14 0)
(2.9 -1.10335e-13 0)
(2.9 -9.74134e-15 0)
(2.9 6.6929e-14 0)
(2.9 -3.03198e-15 0)
(2.9 1.73419e-15 0)
(2.9 4.04703e-14 0)
(2.9 1.91217e-14 0)
(2.9 5.49313e-14 0)
(2.9 6.76243e-14 0)
(2.9 9.58068e-14 0)
(2.9 2.79643e-14 0)
(2.9 3.7079e-14 0)
(2.9 -6.55797e-15 0)
(2.9 4.29269e-14 0)
(2.9 -4.33642e-14 0)
(2.9 -1.66343e-14 0)
(2.9 5.46478e-14 0)
(2.9 1.75436e-14 0)
(2.9 1.86781e-14 0)
(2.9 6.10174e-14 0)
(2.9 4.64472e-14 0)
(2.9 2.52703e-14 0)
(2.9 7.51352e-14 0)
(2.9 9.25904e-14 0)
(2.9 5.22186e-14 0)
(2.9 3.46084e-14 0)
(2.9 5.47144e-14 0)
(2.9 -4.68426e-14 0)
(2.9 -8.64228e-16 0)
(2.9 5.72405e-14 0)
(2.9 1.70052e-14 0)
(2.9 2.6344e-14 0)
(2.9 3.10277e-14 0)
(2.9 -6.31989e-14 0)
(2.9 -7.38503e-14 0)
(2.9 9.44977e-15 0)
(2.9 -2.81306e-14 0)
(2.9 -4.85873e-14 0)
(2.9 2.40577e-14 0)
(2.9 -4.15919e-14 0)
(2.9 -5.33306e-14 0)
(2.9 -3.11704e-14 0)
(2.9 5.46094e-14 0)
(2.9 9.05851e-14 0)
(2.9 6.14574e-14 0)
(2.9 -6.60689e-15 0)
(2.9 -3.22457e-14 0)
(2.9 -4.13507e-14 0)
(2.9 7.28685e-15 0)
(2.9 4.8946e-14 0)
(2.9 2.44373e-14 0)
(2.9 -1.76664e-15 0)
(2.9 -5.99524e-14 0)
(2.9 -5.65912e-14 0)
(2.9 -3.63884e-14 0)
(2.9 -3.78231e-14 0)
(2.9 1.12273e-14 0)
(2.9 3.62919e-14 0)
(2.9 5.9269e-14 0)
(2.9 1.54699e-14 0)
(2.9 -3.6722e-14 0)
(2.9 -3.53213e-14 0)
(2.9 2.33292e-14 0)
(2.9 -1.81936e-14 0)
(2.9 -2.1052e-14 0)
(2.9 9.01094e-15 0)
(2.9 1.13871e-14 0)
(2.9 6.45546e-14 0)
(2.9 6.19573e-14 0)
(2.9 8.61614e-14 0)
(2.9 2.24213e-14 0)
(2.9 3.9942e-15 0)
(2.9 -6.55434e-14 0)
(2.9 7.52404e-14 0)
(2.9 -1.42489e-14 0)
(2.9 6.74814e-15 0)
(2.9 4.71247e-14 0)
(2.9 3.37999e-14 0)
(2.9 1.57239e-14 0)
(2.9 3.22674e-14 0)
(2.9 7.35249e-14 0)
(2.9 7.18422e-14 0)
(2.9 3.38026e-14 0)
(2.9 6.53076e-14 0)
(2.9 2.15715e-14 0)
(2.9 2.35512e-14 0)
(2.9 9.66418e-14 0)
(2.9 -1.69026e-14 0)
(2.9 -3.4354e-14 0)
(2.9 6.24065e-14 0)
(2.9 8.20321e-14 0)
(2.9 7.85795e-15 0)
(2.9 6.30674e-14 0)
(2.9 -5.83222e-15 0)
(2.9 -5.15571e-14 0)
(2.9 3.24328e-14 0)
(2.9 -1.91552e-14 0)
(2.9 -5.53487e-14 0)
(2.9 -5.37493e-14 0)
(2.9 -1.04736e-14 0)
(2.9 7.68913e-15 0)
(2.9 -5.86815e-14 0)
(2.9 -7.50925e-15 0)
(2.9 8.55627e-14 0)
(2.9 2.41973e-14 0)
(2.9 -5.44372e-14 0)
(2.9 -3.15987e-14 0)
(2.9 9.49678e-15 0)
(2.9 7.18113e-14 0)
(2.9 8.04064e-14 0)
(2.9 5.02296e-15 0)
(2.9 2.05678e-14 0)
(2.9 1.86967e-14 0)
(2.9 1.78054e-15 0)
(2.9 3.28833e-14 0)
(2.9 1.73622e-14 0)
(2.9 5.99169e-14 0)
(2.9 -4.97387e-15 0)
(2.9 3.76615e-14 0)
(2.9 8.85304e-14 0)
(2.9 3.42945e-14 0)
(2.9 -6.4023e-14 0)
(2.9 2.49775e-14 0)
(2.9 8.78056e-15 0)
(2.9 1.55387e-14 0)
(2.9 -5.37817e-14 0)
(2.9 -2.61525e-14 0)
(2.9 -2.04807e-14 0)
(2.9 4.30118e-14 0)
(2.9 -2.49231e-14 0)
(2.9 -2.45251e-14 0)
(2.9 -1.07122e-14 0)
(2.9 -1.2364e-13 0)
(2.9 -4.02829e-14 0)
(2.9 -5.65244e-14 0)
(2.9 1.81923e-15 0)
(2.9 3.95802e-14 0)
(2.9 4.27938e-14 0)
(2.9 -5.2857e-15 0)
(2.9 2.1732e-14 0)
(2.9 5.41869e-14 0)
(2.9 8.24222e-14 0)
(2.9 -1.63932e-15 0)
(2.9 1.59972e-14 0)
(2.9 -9.39119e-15 0)
(2.9 -3.35341e-14 0)
(2.9 2.76285e-14 0)
(2.9 -4.02651e-14 0)
(2.9 -1.47938e-14 0)
(2.9 2.05228e-14 0)
(2.9 5.46171e-14 0)
(2.9 -4.86385e-14 0)
(2.9 3.46406e-14 0)
(2.9 1.10943e-14 0)
(2.9 -2.14982e-15 0)
(2.9 -5.91663e-15 0)
(2.9 1.27893e-14 0)
(2.9 -3.4482e-14 0)
(2.9 -1.17684e-13 0)
(2.9 4.74368e-14 0)
(2.9 6.63841e-14 0)
(2.9 -7.01674e-15 0)
(2.9 3.24274e-15 0)
(2.9 9.90816e-15 0)
(2.9 -2.1835e-14 0)
(2.9 -3.19441e-14 0)
(2.9 -7.16056e-14 0)
(2.9 4.19649e-14 0)
(2.9 6.48325e-14 0)
(2.9 7.34382e-14 0)
(2.9 -1.9535e-14 0)
(2.9 5.35051e-14 0)
(2.9 4.53959e-14 0)
(2.9 2.06985e-14 0)
(2.9 2.31912e-14 0)
(2.9 -1.68275e-14 0)
(2.9 3.34141e-14 0)
(2.9 -4.39547e-14 0)
(2.9 -2.39913e-14 0)
(2.9 2.61371e-14 0)
(2.9 4.8875e-14 0)
(2.9 -2.24366e-14 0)
(2.9 -1.2652e-14 0)
(2.9 -1.65485e-14 0)
(2.9 1.29554e-14 0)
(2.9 -6.1145e-14 0)
(2.9 -2.26683e-14 0)
(2.9 -8.32545e-14 0)
(2.9 -5.60955e-15 0)
(2.9 -6.65227e-14 0)
(2.9 -2.24881e-14 0)
(2.9 -3.25663e-15 0)
(2.9 -6.92165e-14 0)
(2.9 -8.94637e-14 0)
(2.9 -1.4075e-14 0)
(2.9 9.50865e-15 0)
(2.9 3.93662e-14 0)
(2.9 5.12272e-15 0)
(2.9 -2.11977e-15 0)
(2.9 3.12141e-14 0)
(2.9 -1.42494e-14 0)
(2.9 6.96633e-14 0)
(2.9 -2.61345e-14 0)
(2.9 2.87536e-14 0)
(2.9 -4.05694e-15 0)
(2.9 -5.59278e-16 0)
(2.9 -5.53534e-14 0)
(2.9 1.09724e-14 0)
(2.9 -1.26208e-14 0)
(2.9 -3.61184e-14 0)
(2.9 -1.91407e-15 0)
(2.9 -5.05673e-14 0)
(2.9 -4.74684e-14 0)
(2.9 1.95227e-14 0)
(2.9 4.00035e-14 0)
(2.9 7.52503e-15 0)
(2.9 -3.61516e-15 0)
(2.9 -5.42827e-15 0)
(2.9 -3.79501e-14 0)
(2.9 5.92717e-14 0)
(2.9 7.66116e-14 0)
(2.9 7.99073e-14 0)
(2.9 1.42518e-14 0)
(2.9 -5.86666e-14 0)
(2.9 3.76248e-14 0)
(2.9 -8.90828e-15 0)
(2.9 -1.43532e-14 0)
(2.9 3.52778e-14 0)
(2.9 2.2147e-14 0)
(2.9 -1.52011e-14 0)
(2.9 -2.10168e-14 0)
(2.9 4.42114e-14 0)
(2.9 3.64969e-14 0)
(2.9 3.24087e-14 0)
(2.9 -6.61582e-15 0)
(2.9 -3.06912e-15 0)
(2.9 -5.98221e-14 0)
(2.9 -1.55707e-14 0)
(2.9 -3.4185e-15 0)
(2.9 -3.34074e-14 0)
(2.9 1.70209e-14 0)
(2.9 1.25943e-14 0)
(2.9 -2.88132e-14 0)
(2.9 -5.83866e-15 0)
(2.9 -3.73653e-14 0)
(2.9 -3.60167e-14 0)
(2.9 3.14411e-14 0)
(2.9 -3.84375e-14 0)
(2.9 -6.98168e-14 0)
(2.9 -5.62015e-14 0)
(2.9 3.76997e-14 0)
(2.9 4.3165e-15 0)
(2.9 1.77905e-14 0)
(2.9 -2.94713e-14 0)
(2.9 1.72352e-14 0)
(2.9 5.89043e-14 0)
(2.9 3.26385e-14 0)
(2.9 -3.85142e-15 0)
(2.9 1.78904e-14 0)
(2.9 1.37124e-14 0)
(2.9 6.24209e-16 0)
(2.9 2.32613e-14 0)
(2.9 -3.78071e-15 0)
(2.9 1.91384e-14 0)
(2.9 9.5881e-15 0)
(2.9 8.99042e-15 0)
(2.9 2.27473e-14 0)
(2.9 4.03633e-14 0)
(2.9 -3.73033e-14 0)
(2.9 -5.45397e-14 0)
(2.9 -8.03024e-15 0)
(2.9 -3.80079e-14 0)
(2.9 -3.53507e-14 0)
(2.9 4.48917e-14 0)
(2.9 7.02687e-14 0)
(2.9 6.04432e-14 0)
(2.9 6.25852e-15 0)
(2.9 -4.20247e-14 0)
(2.9 9.06865e-15 0)
(2.9 4.2873e-14 0)
(2.9 6.3944e-14 0)
(2.9 -8.32323e-15 0)
(2.9 -3.55881e-14 0)
(2.9 -2.29777e-14 0)
(2.9 2.62818e-14 0)
(2.9 -2.81709e-14 0)
(2.9 -1.4939e-14 0)
(2.9 1.13043e-14 0)
(2.9 -3.75191e-14 0)
(2.9 -3.00897e-14 0)
(2.9 2.55217e-14 0)
(2.9 7.53087e-14 0)
(2.9 1.75422e-14 0)
(2.9 9.16616e-14 0)
(2.9 4.71295e-14 0)
(2.9 -2.46759e-14 0)
(2.9 -8.26798e-14 0)
(2.9 2.42202e-14 0)
(2.9 4.43081e-14 0)
(2.9 -1.46542e-14 0)
(2.9 5.1036e-14 0)
(2.9 6.99051e-14 0)
(2.9 3.03664e-14 0)
(2.9 1.58218e-14 0)
(2.9 -6.16145e-14 0)
(2.9 2.065e-14 0)
(2.9 -5.67062e-15 0)
(2.9 -8.18817e-14 0)
(2.9 -1.70325e-13 0)
(2.9 -2.73076e-14 0)
(2.9 5.58379e-14 0)
(2.9 3.17128e-14 0)
(2.9 2.07679e-15 0)
(2.9 2.00339e-15 0)
(2.9 8.26706e-14 0)
(2.9 3.2442e-14 0)
(2.9 7.0701e-14 0)
(2.9 5.10451e-15 0)
(2.9 -9.16659e-15 0)
(2.9 4.26549e-14 0)
(2.9 1.40989e-14 0)
(2.9 7.9902e-14 0)
(2.9 2.55023e-14 0)
(2.9 -1.02558e-14 0)
(2.9 -5.81992e-14 0)
(2.9 1.17848e-15 0)
(2.9 1.08746e-13 0)
(2.9 9.27851e-14 0)
(2.9 -3.42261e-15 0)
(2.9 -2.09632e-14 0)
(2.9 -9.1182e-15 0)
(2.9 7.89794e-15 0)
(2.9 -2.32403e-15 0)
(2.9 3.31896e-14 0)
(2.9 8.9101e-14 0)
(2.9 1.09311e-13 0)
(2.9 -2.42912e-14 0)
(2.9 -2.51931e-14 0)
(2.9 1.1517e-13 0)
(2.9 7.36608e-14 0)
(2.9 1.1094e-13 0)
(2.9 -7.36683e-14 0)
(2.9 -8.80556e-14 0)
(2.9 -3.13894e-14 0)
(2.9 2.95461e-14 0)
(2.9 5.99597e-15 0)
(2.9 -2.77732e-14 0)
(2.9 -3.93767e-14 0)
(2.9 -1.13762e-14 0)
(2.9 1.14785e-14 0)
(2.9 9.42675e-14 0)
(2.9 5.22724e-14 0)
(2.9 2.91383e-14 0)
(2.9 5.49658e-14 0)
(2.9 1.98011e-14 0)
(2.9 -2.74088e-14 0)
(2.9 1.15857e-14 0)
(2.9 7.04194e-14 0)
(2.9 6.46195e-14 0)
(2.9 1.51446e-14 0)
(2.9 4.7823e-14 0)
(2.9 8.55757e-14 0)
(2.9 7.00163e-14 0)
(2.9 1.59699e-14 0)
(2.9 2.64638e-14 0)
(2.9 4.4574e-14 0)
(2.9 -3.70558e-14 0)
(2.9 -4.64083e-14 0)
(2.9 -1.0307e-13 0)
(2.9 -4.59861e-14 0)
(2.9 1.25764e-14 0)
(2.9 1.78142e-14 0)
(2.9 -2.98373e-14 0)
(2.9 3.42892e-15 0)
(2.9 5.98261e-14 0)
(2.9 4.24977e-14 0)
(2.9 4.59535e-14 0)
(2.9 2.34518e-14 0)
(2.9 -9.41859e-14 0)
(2.9 1.24825e-14 0)
(2.9 -1.06373e-16 0)
(2.9 9.31435e-14 0)
(2.9 3.66249e-14 0)
(2.9 -6.94361e-15 0)
(2.9 -5.76223e-14 0)
(2.9 -4.08542e-14 0)
(2.9 -3.75929e-14 0)
(2.9 2.39819e-14 0)
(2.9 -4.14554e-14 0)
(2.9 -4.16767e-15 0)
(2.9 -5.8692e-14 0)
(2.9 -3.02379e-14 0)
(2.9 -1.28796e-14 0)
(2.9 9.04088e-15 0)
(2.9 3.24081e-14 0)
(2.9 -2.66927e-15 0)
(2.9 2.03227e-14 0)
(2.9 6.64176e-14 0)
(2.9 9.47213e-14 0)
(2.9 1.70638e-14 0)
(2.9 6.50103e-14 0)
(2.9 -5.21786e-14 0)
(2.9 -8.3655e-14 0)
(2.9 -1.10932e-14 0)
(2.9 2.06078e-14 0)
(2.9 5.95635e-14 0)
(2.9 1.18033e-14 0)
(2.9 -4.274e-14 0)
(2.9 -3.35949e-15 0)
(2.9 -6.22234e-15 0)
(2.9 4.52002e-14 0)
(2.9 -6.55205e-15 0)
(2.9 1.61937e-14 0)
(2.9 3.22646e-15 0)
(2.9 6.33161e-14 0)
(2.9 5.40423e-14 0)
(2.9 3.7372e-14 0)
(2.9 2.42923e-14 0)
(2.9 5.44363e-14 0)
(2.9 3.27829e-14 0)
(2.9 7.3362e-14 0)
(2.9 7.06829e-14 0)
(2.9 2.822e-14 0)
(2.9 1.82597e-14 0)
(2.9 6.10309e-14 0)
(2.9 2.26814e-14 0)
(2.9 1.63573e-14 0)
(2.9 2.78814e-14 0)
(2.9 5.86698e-14 0)
(2.9 1.78174e-14 0)
(2.9 -1.80561e-14 0)
(2.9 1.96027e-14 0)
(2.9 6.62138e-14 0)
(2.9 1.38457e-14 0)
(2.9 3.36159e-14 0)
(2.9 8.2693e-14 0)
(2.9 -2.22712e-14 0)
(2.9 -1.03914e-14 0)
(2.9 -8.52172e-15 0)
(2.9 -3.08267e-14 0)
(2.9 -1.22728e-15 0)
(2.9 -2.83268e-14 0)
(2.9 3.02424e-14 0)
(2.9 -3.67534e-14 0)
(2.9 -1.1104e-14 0)
(2.9 -6.17785e-14 0)
(2.9 -1.39183e-13 0)
(2.9 -2.23417e-14 0)
(2.9 -6.9076e-14 0)
(2.9 1.40414e-14 0)
(2.9 -3.57375e-14 0)
(2.9 -3.3436e-14 0)
(2.9 -4.72047e-14 0)
(2.9 2.47037e-14 0)
(2.9 -3.08685e-15 0)
(2.9 -1.16286e-13 0)
(2.9 3.58955e-15 0)
(2.9 1.03028e-13 0)
(2.9 3.68684e-14 0)
(2.9 -4.76774e-14 0)
(2.9 -8.20794e-14 0)
(2.9 -9.1213e-15 0)
(2.9 -5.30929e-14 0)
(2.9 2.84889e-14 0)
(2.9 9.54487e-15 0)
(2.9 3.92134e-14 0)
(2.9 4.75338e-14 0)
(2.9 -2.30477e-15 0)
(2.9 5.00359e-15 0)
(2.9 3.21469e-15 0)
(2.9 -2.4348e-14 0)
(2.9 1.57291e-14 0)
(2.9 3.12192e-14 0)
(2.9 7.65686e-15 0)
(2.9 1.03364e-13 0)
(2.9 1.37756e-13 0)
(2.9 3.58504e-14 0)
(2.9 -9.16626e-14 0)
(2.9 -1.53375e-14 0)
(2.9 1.23656e-13 0)
(2.9 6.12247e-14 0)
(2.9 2.22576e-14 0)
(2.9 -2.60526e-14 0)
(2.9 3.35873e-14 0)
(2.9 6.03863e-14 0)
(2.9 -3.92024e-14 0)
(2.9 2.3097e-14 0)
(2.9 6.61929e-14 0)
(2.9 1.87735e-13 0)
(2.9 6.33341e-14 0)
(2.9 2.95552e-14 0)
(2.9 2.86308e-15 0)
(2.9 1.29216e-13 0)
(2.9 3.15964e-14 0)
(2.9 -2.91804e-14 0)
(2.9 3.36254e-14 0)
(2.9 -6.69351e-14 0)
(2.9 -4.67765e-14 0)
(2.9 8.21917e-14 0)
(2.9 -4.21795e-14 0)
(2.9 -2.75208e-14 0)
(2.9 -1.19939e-13 0)
(2.9 -4.51267e-14 0)
(2.9 -5.88686e-14 0)
(2.9 6.6131e-14 0)
(2.9 4.0187e-14 0)
(2.9 -3.5456e-14 0)
(2.9 -3.23965e-14 0)
(2.9 -4.37434e-14 0)
(2.9 1.6138e-14 0)
(2.9 4.7242e-15 0)
(2.9 6.13987e-14 0)
(2.9 -4.12012e-14 0)
(2.9 2.56891e-14 0)
(2.9 -2.10325e-14 0)
(2.9 -8.04115e-14 0)
(2.9 8.3543e-15 0)
(2.9 3.89877e-14 0)
(2.9 6.10855e-14 0)
(2.9 -1.87594e-14 0)
(2.9 -1.6486e-13 0)
(2.9 -3.79063e-14 0)
(2.9 -2.31376e-14 0)
(2.9 -2.9178e-15 0)
(2.9 -8.94519e-14 0)
(2.9 -1.66871e-14 0)
(2.9 1.81627e-14 0)
(2.9 3.68104e-14 0)
(2.9 4.36478e-14 0)
(2.9 1.04354e-13 0)
(2.9 2.73464e-14 0)
(2.9 4.05051e-16 0)
(2.9 1.21387e-14 0)
(2.9 1.9115e-14 0)
(2.9 2.69309e-14 0)
(2.9 5.73324e-14 0)
(2.9 1.62415e-14 0)
(2.9 -3.49306e-14 0)
(2.9 3.01775e-15 0)
(2.9 6.26621e-14 0)
(2.9 -1.31015e-14 0)
(2.9 -6.82016e-15 0)
(2.9 -4.38087e-14 0)
(2.9 9.77407e-15 0)
(2.9 7.15285e-14 0)
(2.9 3.59539e-14 0)
(2.9 1.29298e-14 0)
(2.9 5.98922e-14 0)
(2.9 9.59807e-14 0)
(2.9 3.86371e-14 0)
(2.9 3.54352e-14 0)
(2.9 6.65391e-14 0)
(2.9 8.54861e-14 0)
(2.9 1.56907e-14 0)
(2.9 -1.30925e-14 0)
(2.9 6.49776e-14 0)
(2.9 -2.17607e-14 0)
(2.9 -2.36026e-14 0)
(2.9 5.12228e-14 0)
(2.9 -1.36577e-14 0)
(2.9 -2.39283e-14 0)
(2.9 -6.52808e-14 0)
(2.9 -1.19361e-15 0)
(2.9 -8.51872e-15 0)
(2.9 3.87211e-14 0)
(2.9 2.3936e-14 0)
(2.9 2.42762e-14 0)
(2.9 -6.11504e-15 0)
(2.9 -3.76839e-15 0)
(2.9 3.44276e-14 0)
(2.9 2.38987e-14 0)
(2.9 7.95562e-15 0)
(2.9 2.01967e-14 0)
(2.9 2.9118e-14 0)
(2.9 -9.28542e-15 0)
(2.9 5.47756e-15 0)
(2.9 2.93909e-14 0)
(2.9 -8.17761e-15 0)
(2.9 2.96806e-14 0)
(2.9 -5.69845e-14 0)
(2.9 -1.03391e-13 0)
(2.9 -6.5218e-14 0)
(2.9 -1.41208e-14 0)
(2.9 -1.10553e-14 0)
(2.9 -1.04423e-13 0)
(2.9 -8.49445e-15 0)
(2.9 6.49994e-15 0)
(2.9 2.23313e-14 0)
(2.9 -1.33385e-15 0)
(2.9 7.49163e-14 0)
(2.9 4.19597e-14 0)
(2.9 -2.1661e-14 0)
(2.9 -6.15483e-15 0)
(2.9 5.11987e-15 0)
(2.9 -5.01566e-14 0)
(2.9 -1.00363e-14 0)
(2.9 2.60884e-15 0)
(2.9 3.78994e-14 0)
(2.9 1.01348e-14 0)
(2.9 -4.91689e-14 0)
(2.9 1.81211e-14 0)
(2.9 2.33373e-14 0)
(2.9 -2.73218e-14 0)
(2.9 -1.3921e-14 0)
(2.9 8.48599e-14 0)
(2.9 1.0434e-13 0)
(2.9 6.94106e-14 0)
(2.9 -3.93101e-15 0)
(2.9 -6.69761e-14 0)
(2.9 4.072e-15 0)
(2.9 4.61717e-14 0)
(2.9 7.52458e-14 0)
(2.9 6.61467e-14 0)
(2.9 1.80802e-14 0)
(2.9 2.6598e-14 0)
(2.9 3.94478e-14 0)
(2.9 2.81762e-14 0)
(2.9 -6.59754e-15 0)
(2.9 -1.89856e-14 0)
(2.9 6.65184e-15 0)
(2.9 4.63239e-14 0)
(2.9 -3.91896e-15 0)
(2.9 2.16923e-14 0)
(2.9 6.11573e-14 0)
(2.9 -7.00357e-15 0)
(2.9 -8.65036e-15 0)
(2.9 4.87628e-14 0)
(2.9 -2.00738e-14 0)
(2.9 5.07986e-14 0)
(2.9 -1.22827e-14 0)
(2.9 3.74401e-14 0)
(2.9 -5.43452e-15 0)
(2.9 1.00658e-13 0)
(2.9 6.23007e-14 0)
(2.9 6.53116e-14 0)
(2.9 8.99149e-14 0)
(2.9 8.2763e-14 0)
(2.9 7.46457e-14 0)
(2.9 2.52777e-14 0)
(2.9 -4.32242e-14 0)
(2.9 -4.40663e-14 0)
(2.9 -2.22038e-14 0)
(2.9 -2.54209e-14 0)
(2.9 -8.60178e-14 0)
(2.9 -9.11944e-14 0)
(2.9 -3.69867e-14 0)
(2.9 -6.16181e-14 0)
(2.9 -3.12907e-14 0)
(2.9 -7.55067e-14 0)
(2.9 3.68837e-15 0)
(2.9 3.80577e-15 0)
(2.9 -1.935e-14 0)
(2.9 1.47282e-14 0)
(2.9 1.47558e-14 0)
(2.9 -4.11668e-14 0)
(2.9 -4.67242e-14 0)
(2.9 -9.15189e-15 0)
(2.9 6.17345e-14 0)
(2.9 -1.32656e-14 0)
(2.9 -1.12384e-13 0)
(2.9 5.04582e-14 0)
(2.9 6.19133e-14 0)
(2.9 -1.86867e-14 0)
(2.9 3.46795e-14 0)
(2.9 1.43796e-14 0)
(2.9 2.8651e-14 0)
(2.9 8.07006e-14 0)
(2.9 -4.38428e-14 0)
(2.9 -1.39673e-13 0)
(2.9 -3.89939e-15 0)
(2.9 3.62058e-14 0)
(2.9 4.66007e-14 0)
(2.9 7.84056e-14 0)
(2.9 9.05834e-15 0)
(2.9 -4.06643e-15 0)
(2.9 -4.76581e-15 0)
(2.9 -5.50434e-15 0)
(2.9 -3.39838e-15 0)
(2.9 -2.87183e-14 0)
(2.9 6.87265e-14 0)
(2.9 1.53032e-13 0)
(2.9 7.56394e-14 0)
(2.9 -3.35666e-14 0)
(2.9 3.90229e-14 0)
(2.9 -6.312e-15 0)
(2.9 -1.18181e-14 0)
(2.9 2.78297e-14 0)
(2.9 -3.91843e-14 0)
(2.9 6.21235e-14 0)
(2.9 5.44062e-15 0)
(2.9 6.24859e-14 0)
(2.9 6.36032e-14 0)
(2.9 1.08489e-13 0)
(2.9 1.09628e-13 0)
(2.9 9.7399e-14 0)
(2.9 9.48261e-14 0)
(2.9 1.58815e-13 0)
(2.9 1.2694e-13 0)
(2.9 5.96695e-14 0)
(2.9 -2.88305e-14 0)
(2.9 2.18494e-14 0)
(2.9 -6.42075e-14 0)
(2.9 -1.80373e-14 0)
(2.9 -1.88524e-14 0)
(2.9 4.00649e-15 0)
(2.9 -9.50789e-14 0)
(2.9 -1.10933e-13 0)
(2.9 -1.95561e-14 0)
(2.9 -1.67057e-14 0)
(2.9 -7.21237e-14 0)
(2.9 6.5359e-15 0)
(2.9 2.48319e-14 0)
(2.9 2.07346e-14 0)
(2.9 5.52119e-15 0)
(2.9 -6.52692e-14 0)
(2.9 -3.84111e-14 0)
(2.9 -1.09179e-14 0)
(2.9 3.06194e-14 0)
(2.9 -8.95645e-17 0)
(2.9 -5.94377e-14 0)
(2.9 -2.17371e-14 0)
(2.9 5.03398e-14 0)
(2.9 4.19608e-14 0)
(2.9 -2.31877e-14 0)
(2.9 -1.56161e-14 0)
(2.9 -1.93244e-14 0)
(2.9 -1.96479e-14 0)
(2.9 -5.56933e-14 0)
(2.9 -1.03986e-13 0)
(2.9 -3.19908e-14 0)
(2.9 -3.75465e-14 0)
(2.9 1.11398e-14 0)
(2.9 -5.02852e-14 0)
(2.9 1.39974e-14 0)
(2.9 7.7606e-15 0)
(2.9 -5.96108e-14 0)
(2.9 3.21795e-14 0)
(2.9 6.49423e-14 0)
(2.9 2.21744e-14 0)
(2.9 3.84431e-14 0)
(2.9 7.5967e-14 0)
(2.9 2.39939e-14 0)
(2.9 -4.2402e-14 0)
(2.9 1.05017e-15 0)
(2.9 -2.70864e-14 0)
(2.9 3.42462e-14 0)
(2.9 -1.55736e-14 0)
(2.9 -2.99359e-14 0)
(2.9 3.35438e-14 0)
(2.9 -1.07305e-14 0)
(2.9 4.61646e-15 0)
(2.9 6.73616e-14 0)
(2.9 6.24126e-14 0)
(2.9 3.40213e-14 0)
(2.9 5.64362e-15 0)
(2.9 1.33893e-14 0)
(2.9 1.35434e-14 0)
(2.9 2.57748e-14 0)
(2.9 6.99371e-15 0)
(2.9 4.23881e-14 0)
(2.9 9.62369e-14 0)
(2.9 7.40319e-15 0)
(2.9 2.18541e-14 0)
(2.9 7.73888e-14 0)
(2.9 4.41262e-14 0)
(2.9 -5.58105e-14 0)
(2.9 -3.81512e-14 0)
(2.9 -4.32832e-14 0)
(2.9 1.41389e-14 0)
(2.9 -6.66088e-14 0)
(2.9 3.05396e-14 0)
(2.9 3.82947e-15 0)
(2.9 1.25559e-14 0)
(2.9 -7.34407e-14 0)
(2.9 -6.17989e-14 0)
(2.9 3.69831e-14 0)
(2.9 4.69737e-14 0)
(2.9 1.38333e-14 0)
(2.9 4.11575e-15 0)
(2.9 1.60378e-14 0)
(2.9 -4.30072e-14 0)
(2.9 4.89509e-14 0)
(2.9 1.40006e-14 0)
(2.9 -5.88789e-14 0)
(2.9 -5.07021e-14 0)
(2.9 -2.68049e-14 0)
(2.9 -7.15394e-14 0)
(2.9 -4.65937e-14 0)
(2.9 -2.85746e-14 0)
(2.9 -2.43313e-14 0)
(2.9 -6.45545e-14 0)
(2.9 -1.32993e-14 0)
(2.9 -8.59493e-14 0)
(2.9 1.41954e-14 0)
(2.9 -8.86806e-15 0)
(2.9 -4.93626e-14 0)
(2.9 4.68189e-14 0)
(2.9 1.09313e-13 0)
(2.9 3.0227e-14 0)
(2.9 4.67915e-14 0)
(2.9 -3.06049e-15 0)
(2.9 -3.40813e-14 0)
(2.9 -3.47834e-14 0)
(2.9 -7.60139e-15 0)
(2.9 -5.1317e-14 0)
(2.9 4.93914e-15 0)
(2.9 -2.64149e-14 0)
(2.9 4.21549e-14 0)
(2.9 -2.59435e-14 0)
(2.9 -1.84709e-14 0)
(2.9 -1.57695e-14 0)
(2.9 2.98254e-14 0)
(2.9 -2.54582e-15 0)
(2.9 -3.12629e-14 0)
(2.9 -5.94926e-14 0)
(2.9 -1.01926e-13 0)
(2.9 -7.51767e-14 0)
(2.9 -5.16394e-14 0)
(2.9 -7.6242e-14 0)
(2.9 5.38032e-14 0)
(2.9 1.24442e-13 0)
(2.9 8.12274e-14 0)
(2.9 5.73171e-14 0)
(2.9 7.14792e-14 0)
(2.9 9.77153e-14 0)
(2.9 2.3285e-14 0)
(2.9 3.74951e-14 0)
(2.9 -3.98014e-14 0)
(2.9 8.00544e-16 0)
(2.9 -6.48279e-14 0)
(2.9 -1.83808e-15 0)
(2.9 -1.14373e-14 0)
(2.9 -1.10288e-14 0)
(2.9 -8.32206e-14 0)
(2.9 -6.76677e-14 0)
(2.9 6.21224e-14 0)
(2.9 3.7242e-14 0)
(2.9 -2.26525e-14 0)
(2.9 -4.05757e-14 0)
(2.9 -2.29154e-14 0)
(2.9 -4.05669e-14 0)
(2.9 2.79401e-14 0)
(2.9 5.73942e-14 0)
(2.9 -2.83379e-14 0)
(2.9 -9.58432e-14 0)
(2.9 -4.49143e-14 0)
(2.9 -4.12288e-15 0)
(2.9 -4.48648e-14 0)
(2.9 1.07311e-14 0)
(2.9 5.30839e-14 0)
(2.9 -1.24678e-14 0)
(2.9 -3.69496e-14 0)
(2.9 -2.31553e-14 0)
(2.9 -1.70895e-14 0)
(2.9 2.59797e-14 0)
(2.9 -3.98466e-14 0)
(2.9 3.94807e-14 0)
(2.9 7.56213e-14 0)
(2.9 4.08008e-14 0)
(2.9 7.50778e-14 0)
(2.9 -4.34137e-14 0)
(2.9 -4.45136e-14 0)
(2.9 4.71567e-14 0)
(2.9 4.65481e-14 0)
(2.9 -4.26394e-14 0)
(2.9 -5.30873e-14 0)
(2.9 -2.40933e-14 0)
(2.9 9.05643e-14 0)
(2.9 3.57376e-14 0)
(2.9 4.41521e-14 0)
(2.9 -5.81641e-15 0)
(2.9 -1.08941e-14 0)
(2.9 -1.45883e-14 0)
(2.9 -7.6023e-14 0)
(2.9 -2.03511e-14 0)
(2.9 -5.19561e-14 0)
(2.9 -1.87103e-14 0)
(2.9 -3.89263e-14 0)
(2.9 -7.78127e-14 0)
(2.9 -6.14375e-15 0)
(2.9 4.3436e-14 0)
(2.9 1.79796e-14 0)
(2.9 2.33714e-14 0)
(2.9 4.95785e-14 0)
(2.9 5.66947e-14 0)
(2.9 6.64375e-14 0)
(2.9 7.29026e-14 0)
(2.9 -3.04657e-14 0)
(2.9 -3.20991e-14 0)
(2.9 -3.04508e-14 0)
(2.9 -3.97439e-14 0)
(2.9 -5.56495e-14 0)
(2.9 -1.17747e-14 0)
(2.9 -2.64046e-14 0)
(2.9 -3.99235e-14 0)
(2.9 -3.08842e-14 0)
(2.9 -3.19552e-14 0)
(2.9 -5.22355e-14 0)
(2.9 -1.81952e-14 0)
(2.9 -4.62844e-14 0)
(2.9 -2.56215e-14 0)
(2.9 -5.88362e-15 0)
(2.9 7.37675e-14 0)
(2.9 5.79702e-14 0)
(2.9 -6.52865e-14 0)
(2.9 -1.07105e-13 0)
(2.9 -4.40378e-14 0)
(2.9 -1.58125e-14 0)
(2.9 3.99211e-14 0)
(2.9 8.19036e-14 0)
(2.9 2.37764e-14 0)
(2.9 -8.78161e-15 0)
(2.9 1.09525e-14 0)
(2.9 -1.39968e-14 0)
(2.9 -4.11792e-14 0)
(2.9 -4.47038e-14 0)
(2.9 -2.55817e-14 0)
(2.9 4.27738e-15 0)
(2.9 -8.25493e-15 0)
(2.9 -2.90773e-14 0)
(2.9 -2.41581e-14 0)
(2.9 -1.78297e-15 0)
(2.9 5.10657e-14 0)
(2.9 1.89989e-14 0)
(2.9 8.85478e-15 0)