/*--------------------------------*- C++ -*----------------------------------*\
| =========                 |                                                 |
| \\      /  F ield         | OpenFOAM: The Open Source CFD Toolbox           |
|  \\    /   O peration     | Version:  2412                                  |
|   \\  /    A nd           | Website:  www.openfoam.com                      |
|    \\/     M anipulation  |                                                 |
\*---------------------------------------------------------------------------*/
FoamFile
{
    version     2.0;
    format      ascii;
    arch        "LSB;label=32;scalar=64";
    class       volVectorField;
    location    "0.0216892";
    object      U;
}
// * * * * * * * * * * * * * * * * * * * * * * * * * * * * * * * * * * * * * //

dimensions      [0 1 -1 0 0 0 0];

internalField   nonuniform List<vector> 
100
(
(3.42652 0 0)
(10.3626 0 0)
(17.2349 0 0)
(24.1044 0 0)
(31.0084 0 0)
(37.8991 0 0)
(44.8142 0 0)
(51.696 0 0)
(58.559 0 0)
(65.4477 0 0)
(72.3125 0 0)
(79.3008 0 0)
(86.1011 0 0)
(93.0824 0 0)
(99.5765 0 0)
(106.52 0 0)
(112.705 0 0)
(119.45 0 0)
(125.91 0 0)
(133.073 0 0)
(140.294 0 0)
(147.9 0 0)
(156.506 0 0)
(165.069 0 0)
(174.901 0 0)
(186.25 0 0)
(200.041 0 0)
(208.775 0 0)
(213.136 0 0)
(216.07 0 0)
(218.537 0 0)
(220.264 0 0)
(222.968 0 0)
(226.078 0 0)
(229.529 0 0)
(233.88 0 0)
(239.232 0 0)
(243.529 0 0)
(247.157 0 0)
(250.775 0 0)
(254.515 0 0)
(258.401 0 0)
(262.42 0 0)
(266.104 0 0)
(269.529 0 0)
(273.551 0 0)
(277.053 0 0)
(279.676 0 0)
(282.213 0 0)
(283.987 0 0)
(284.192 0 0)
(283.828 0 0)
(283.507 0 0)
(282.894 0 0)
(282.487 0 0)
(283.767 0 0)
(284.773 0 0)
(282.711 0 0)
(280.557 0 0)
(282.231 0 0)
(286.992 0 0)
(287.514 0 0)
(278.653 0 0)
(276.259 0 0)
(285.374 0 0)
(291.409 0 0)
(286.929 0 0)
(273.339 0 0)
(270.654 0 0)
(287.138 0 0)
(292.288 0 0)
(285.634 0 0)
(273.198 0 0)
(266.473 0 0)
(221.53 0 0)
(52.131 0 0)
(4.57597 0 0)
(18.3202 0 0)
(23.901 0 0)
(9.81652 0 0)
(19.1646 0 0)
(13.5525 0 0)
(11.429 0 0)
(18.6423 0 0)
(11.8475 0 0)
(7.09095 0 0)
(-1.07887 0 0)
(-8.59947 0 0)
(-16.3965 0 0)
(-13.37 0 0)
(-8.36766 0 0)
(-0.753402 0 0)
(5.74915 0 0)
(10.0628 0 0)
(9.99482 0 0)
(6.5116 0 0)
(2.86786 0 0)
(-4.97183 0 0)
(-7.26668 0 0)
(0.142668 0 0)
)
;

boundaryField
{
    sides
    {
        type            fixedValue;
        value           uniform (0 0 0);
    }
    empty
    {
        type            empty;
    }
}


// ************************************************************************* //
