/*--------------------------------*- C++ -*----------------------------------*\
| =========                 |                                                 |
| \\      /  F ield         | OpenFOAM: The Open Source CFD Toolbox           |
|  \\    /   O peration     | Version:  2412                                  |
|   \\  /    A nd           | Website:  www.openfoam.com                      |
|    \\/     M anipulation  |                                                 |
\*---------------------------------------------------------------------------*/
FoamFile
{
    version     2.0;
    format      ascii;
    arch        "LSB;label=32;scalar=64";
    class       volVectorField;
    location    "0.0522523";
    object      U;
}
// * * * * * * * * * * * * * * * * * * * * * * * * * * * * * * * * * * * * * //

dimensions      [0 1 -1 0 0 0 0];

internalField   nonuniform List<vector> 
100
(
(10.1419 0 0)
(4.71122 0 0)
(0.437557 0 0)
(-7.53409 0 0)
(-7.34371 0 0)
(0.971688 0 0)
(11.5631 0 0)
(11.1141 0 0)
(2.23161 0 0)
(-12.2769 0 0)
(-26.2501 0 0)
(-27.9804 0 0)
(-7.89678 0 0)
(15.759 0 0)
(1.95309 0 0)
(-119.888 0 0)
(-229.433 0 0)
(-238.981 0 0)
(-237.046 0 0)
(-234.596 0 0)
(-230.083 0 0)
(-224.386 0 0)
(-221.835 0 0)
(-220.119 0 0)
(-217.363 0 0)
(-212.309 0 0)
(-208.651 0 0)
(-207.143 0 0)
(-206.076 0 0)
(-208.393 0 0)
(-211.109 0 0)
(-210.501 0 0)
(-208.267 0 0)
(-202.642 0 0)
(-194.821 0 0)
(-191.916 0 0)
(-191.809 0 0)
(-206.96 0 0)
(-223.438 0 0)
(-224.602 0 0)
(-222.922 0 0)
(-220.282 0 0)
(-210.158 0 0)
(-182.887 0 0)
(-163.043 0 0)
(-156.538 0 0)
(-154.224 0 0)
(-153.052 0 0)
(-151.258 0 0)
(-147.941 0 0)
(-143.575 0 0)
(-140.563 0 0)
(-139.31 0 0)
(-138.44 0 0)
(-137.958 0 0)
(-138.26 0 0)
(-138.564 0 0)
(-138.131 0 0)
(-137.106 0 0)
(-134.247 0 0)
(-127.196 0 0)
(-117.83 0 0)
(-111.41 0 0)
(-107.444 0 0)
(-104.766 0 0)
(-103.705 0 0)
(-103.027 0 0)
(-102.581 0 0)
(-102.041 0 0)
(-100.526 0 0)
(-96.9824 0 0)
(-91.5252 0 0)
(-86.7755 0 0)
(-82.4207 0 0)
(-79.693 0 0)
(-76.689 0 0)
(-73.956 0 0)
(-70.901 0 0)
(-67.5811 0 0)
(-64.6121 0 0)
(-60.4011 0 0)
(-57.8296 0 0)
(-54.2892 0 0)
(-51.8064 0 0)
(-48.5896 0 0)
(-45.5558 0 0)
(-42.9702 0 0)
(-39.2272 0 0)
(-36.6374 0 0)
(-32.8229 0 0)
(-29.5677 0 0)
(-25.7058 0 0)
(-22.6199 0 0)
(-19.539 0 0)
(-16.9229 0 0)
(-14.371 0 0)
(-11.4609 0 0)
(-8.62217 0 0)
(-4.93434 0 0)
(-1.78918 0 0)
)
;

boundaryField
{
    sides
    {
        type            fixedValue;
        value           uniform (0 0 0);
    }
    empty
    {
        type            empty;
    }
}


// ************************************************************************* //
