/*--------------------------------*- C++ -*----------------------------------*\
| =========                 |                                                 |
| \\      /  F ield         | OpenFOAM: The Open Source CFD Toolbox           |
|  \\    /   O peration     | Version:  2412                                  |
|   \\  /    A nd           | Website:  www.openfoam.com                      |
|    \\/     M anipulation  |                                                 |
\*---------------------------------------------------------------------------*/
FoamFile
{
    version     2.0;
    format      ascii;
    arch        "LSB;label=32;scalar=64";
    class       volScalarField;
    location    "0.0104951";
    object      p;
}
// * * * * * * * * * * * * * * * * * * * * * * * * * * * * * * * * * * * * * //

dimensions      [1 -1 -2 0 0 0 0];

internalField   nonuniform List<scalar> 
100
(
100000
100000
100000
100000
100000
100000
100000
100000
100000
100000
100000
100000
100000
99999
99929
98960
95546
90820.2
86712
83474.6
80745.6
78255
75879.1
73575.7
71330.5
69146.8
67004.9
64948.4
62868.8
61011.5
58871.1
57430.1
54966
54185.8
51290.8
50941
48213.2
47609.6
45401.1
44528.6
42694.7
41551.4
40045.6
38812.3
37558.2
36416.7
35190.7
33895.3
33031.3
32535.3
32074.9
31581.9
31150.1
31335
32425.5
32540.3
31715.6
30865.7
31234.8
32634.1
32602.7
31845.4
31033.1
31298.5
32435.3
32567.9
32109.3
31127.6
31232.5
31587.3
32457.1
32379.4
32211
31774.1
31498.3
31679.6
31904.4
32073.3
32329.6
32116.1
31533.9
31543.2
31659.2
31930
32211.4
32232.8
32104
31808.3
31752.4
31787.7
32066.3
32249.3
32232.2
32082.1
31557.7
31239.2
31239.7
31404
32528.7
54966.1
)
;

boundaryField
{
    sides
    {
        type            zeroGradient;
    }
    empty
    {
        type            empty;
    }
}


// ************************************************************************* //
