/*--------------------------------*- C++ -*----------------------------------*\
| =========                 |                                                 |
| \\      /  F ield         | OpenFOAM: The Open Source CFD Toolbox           |
|  \\    /   O peration     | Version:  2412                                  |
|   \\  /    A nd           | Website:  www.openfoam.com                      |
|    \\/     M anipulation  |                                                 |
\*---------------------------------------------------------------------------*/
FoamFile
{
    version     2.0;
    format      ascii;
    arch        "LSB;label=32;scalar=64";
    class       surfaceScalarField;
    location    "0.0104951";
    object      phiRhoY_Y_N2;
}
// * * * * * * * * * * * * * * * * * * * * * * * * * * * * * * * * * * * * * //

dimensions      [1 0 -1 0 0 0 0];

internalField   nonuniform List<scalar> 
99
(
-5.68434e-13
-1.13687e-13
1.13687e-13
4.54747e-13
9.09495e-13
3.41061e-13
-3.41061e-13
2.27374e-13
4.54747e-13
3.41061e-12
9.5531e-10
4.65666e-07
0.000176323
0.0392258
2.22094
22.9497
71.1879
121.903
162.031
193.543
220.308
244.548
267.194
288.565
308.767
327.842
345.846
362.781
378.709
393.58
407.404
420.332
432.029
443.243
453.304
462.137
471.105
478.629
485.086
491.605
497.938
503.109
506.721
509.69
512.97
519.716
522.961
518.857
513.931
515.645
532.275
540.714
526.993
499.734
498.686
537.355
555.912
529.559
491.272
489.99
537.863
561.531
538.314
494.657
492.433
521.937
554.159
549.484
501.89
477.227
485.298
527.895
587.89
584.385
511.157
378.023
247.695
151.207
85.5591
44.1165
21.8768
10.3747
4.65317
1.98845
0.788275
0.294229
0.102973
0.0348413
0.0113718
0.00358367
0.00108223
0.000304377
8.09466e-05
2.01032e-05
4.79915e-06
1.13929e-06
2.61883e-07
6.04164e-08
1.18379e-08
)
;

boundaryField
{
    sides
    {
        type            calculated;
        value           uniform 0;
    }
    empty
    {
        type            empty;
    }
}


// ************************************************************************* //
