/*--------------------------------*- C++ -*----------------------------------*\
| =========                 |                                                 |
| \\      /  F ield         | OpenFOAM: The Open Source CFD Toolbox           |
|  \\    /   O peration     | Version:  2412                                  |
|   \\  /    A nd           | Website:  www.openfoam.com                      |
|    \\/     M anipulation  |                                                 |
\*---------------------------------------------------------------------------*/
FoamFile
{
    version     2.0;
    format      ascii;
    arch        "LSB;label=32;scalar=64";
    class       volScalarField;
    location    "0.0425882";
    object      rho;
}
// * * * * * * * * * * * * * * * * * * * * * * * * * * * * * * * * * * * * * //

dimensions      [1 -3 0 0 0 0 0];

internalField   nonuniform List<scalar> 
100
(
0.230814
0.230839
0.230892
0.230936
0.230955
0.230935
0.230877
0.230798
0.230719
0.23067
0.230636
0.23031
0.230179
0.241457
0.430108
0.576695
0.570812
0.539632
0.538492
0.543821
0.554664
0.580001
0.59705
0.603366
0.608771
0.610972
0.59355
0.572283
0.57014
0.574439
0.58059
0.599338
0.619461
0.627624
0.633579
0.63707
0.632309
0.62919
0.633448
0.640739
0.653082
0.661155
0.666081
0.660584
0.655142
0.659163
0.667305
0.683387
0.694413
0.700876
0.697812
0.689411
0.690444
0.697233
0.716031
0.739392
0.750227
0.75601
0.746793
0.728797
0.72347
0.728919
0.737565
0.754382
0.769353
0.780056
0.787271
0.792684
0.793702
0.796427
0.801234
0.804089
0.806182
0.806005
0.815247
0.822723
0.83265
0.84067
0.837657
0.837378
0.843819
0.86025
0.898839
0.929076
0.942847
0.945305
0.912978
0.848785
0.795169
0.752151
0.722586
0.708119
0.704262
0.705111
0.708257
0.710867
0.713183
0.715494
0.716563
0.718098
)
;

boundaryField
{
    sides
    {
        type            calculated;
        value           nonuniform List<scalar> 2(0.718098 0.230814);
    }
    empty
    {
        type            empty;
    }
}


// ************************************************************************* //
