x,p,U_0,U_1,U_2
-5,97898.9,0,0,0
-4.94975,97890.3,2.98041,0,0
-4.8995,96179.8,9.09067,0,0
-4.84925,94465.7,15.1929,0,0
-4.79899,92518.3,20.7664,0,0
-4.74874,90581.1,26.3087,0,0
-4.69849,89040.5,30.6336,0,0
-4.64824,87513.6,34.9256,0,0
-4.59799,86365.7,38.3137,0,0
-4.54774,85226.4,41.681,0,0
-4.49749,84271.3,44.6103,0,0
-4.44724,83320.4,47.53,0,0
-4.39698,82442,50.2833,0,0
-4.34673,81565.4,53.0337,0,0
-4.29648,80715.7,55.7423,0,0
-4.24623,79867,58.4511,0,0
-4.19598,79031.2,61.1623,0,0
-4.14573,78196.3,63.8746,0,0
-4.09548,77372,66.5981,0,0
-4.04523,76548.9,69.3225,0,0
-3.99497,75737,72.0559,0,0
-3.94472,74926.5,74.79,0,0
-3.89447,74128,77.5296,0,0
-3.84422,73331.1,80.2697,0,0
-3.79397,72546.6,83.0133,0,0
-3.74372,71763.9,85.7574,0,0
-3.69347,70993.3,88.5043,0,0
-3.64322,70224.7,91.2516,0,0
-3.59296,69467.8,94.0016,0,0
-3.54271,68712.9,96.7522,0,0
-3.49246,67969.8,99.5064,0,0
-3.44221,67228.6,102.261,0,0
-3.39196,66497.7,105.018,0,0
-3.34171,65769.4,107.776,0,0
-3.29146,65053.7,110.541,0,0
-3.24121,64339.3,113.306,0,0
-3.19095,63630.8,116.066,0,0
-3.1407,62927.1,118.831,0,0
-3.09045,62244.3,121.613,0,0
-3.0402,61558.8,124.387,0,0
-2.98995,60861.9,127.131,0,0
-2.9397,60179.4,129.89,0,0
-2.88945,59552.5,132.705,0,0
-2.8392,58905.9,135.489,0,0
-2.78894,58187.6,138.162,0,0
-2.73869,57515.2,140.883,0,0
-2.68844,57001.3,143.767,0,0
-2.63819,56418,146.57,0,0
-2.58794,55608.4,149.112,0,0
-2.53769,54917,151.76,0,0
-2.48744,54589.6,154.733,0,0
-2.43719,54099.9,157.581,0,0
-2.38693,53136,160.061,0,0
-2.33668,52389,162.662,0,0
-2.28643,52243.6,165.599,0,0
-2.23618,51850.9,168.455,0,0
-2.18593,50806.6,171.101,0,0
-2.13568,50031.2,173.758,0,0
-2.08543,49930.8,176.443,0,0
-2.03518,49577,179.177,0,0
-1.98492,48618,182.028,0,0
-1.93467,47898.4,184.782,0,0
-1.88442,47724.3,187.315,0,0
-1.83417,47344.6,189.961,0,0
-1.78392,46517.8,192.851,0,0
-1.73367,45871.2,195.62,0,0
-1.68342,45598.7,198.135,0,0
-1.63317,45188.3,200.789,0,0
-1.58291,44504.4,203.72,0,0
-1.53266,43928.9,206.522,0,0
-1.48241,43559.4,209.08,0,0
-1.43216,43113.3,211.746,0,0
-1.38191,42527.9,214.608,0,0
-1.33166,42003.7,217.391,0,0
-1.28141,41586.2,220.035,0,0
-1.23116,41135.7,222.765,0,0
-1.1809,40630.2,225.636,0,0
-1.13065,40148.5,228.444,0,0
-1.0804,39704.9,231.152,0,0
-1.03015,39250.2,233.883,0,0
-0.979899,38778.6,236.649,0,0
-0.929648,38319.8,239.391,0,0
-0.879397,37879.9,242.094,0,0
-0.829146,37447.7,244.836,0,0
-0.778894,37026.5,247.631,0,0
-0.728643,36606,250.399,0,0
-0.678392,36186.5,253.132,0,0
-0.628141,35767.5,255.797,0,0
-0.577889,35349.2,258.372,0,0
-0.527638,34950.7,260.975,0,0
-0.477387,34577,263.612,0,0
-0.427136,34215.6,266.274,0,0
-0.376884,33868.8,268.967,0,0
-0.326633,33506.8,271.45,0,0
-0.276382,33127.5,273.691,0,0
-0.226131,32771.4,275.765,0,0
-0.175879,32441.1,277.654,0,0
-0.125628,32179.2,279.515,0,0
-0.0753769,31990.1,281.345,0,0
-0.0251256,31844.3,282.923,0,0
0.0251256,31742.9,284.244,0,0
0.0753769,31707.6,285.065,0,0
0.125628,31737.1,285.396,0,0
0.175879,31756.3,285.197,0,0
0.226131,31765.8,284.5,0,0
0.276382,31710.6,283.378,0,0
0.326633,31596.9,281.872,0,0
0.376884,31528.9,280.867,0,0
0.427136,31500.7,280.298,0,0
0.477387,31675.9,281.571,0,0
0.527638,32021.1,284.381,0,0
0.577889,32231.7,286.191,0,0
0.628141,32334.4,287.198,0,0
0.678392,32198.1,286.45,0,0
0.728643,31877.7,284.351,0,0
0.778894,31518.5,281.61,0,0
0.829146,31130.6,278.394,0,0
0.879397,31061.9,277.117,0,0
0.929648,31219.7,277.217,0,0
0.979899,31701.9,280.823,0,0
1.03015,32405,286.816,0,0
1.0804,32692.9,289.578,0,0
1.13065,32709.7,290.23,0,0
1.1809,32360.8,287.972,0,0
1.23116,31783,283.89,0,0
1.28141,31273.7,279.95,0,0
1.33166,30805.4,276.095,0,0
1.38191,30825.6,275.214,0,0
1.43216,31126.5,276.041,0,0
1.48241,31770.7,280.988,0,0
1.53266,32603.9,288.203,0,0
1.58291,32861.8,290.676,0,0
1.63317,32816.7,290.651,0,0
1.68342,32465.3,288.22,0,0
1.73367,31959.5,284.576,0,0
1.78392,31434.5,280.435,0,0
1.83417,30900.1,276.055,0,0
1.88442,30856.6,274.854,0,0
1.93467,31038.9,275.116,0,0
1.98492,31603.8,279.435,0,0
2.03518,32336.8,285.534,0,0
2.08543,32624,288.138,0,0
2.13568,32724.9,289.278,0,0
2.18593,32576.7,288.517,0,0
2.23618,32329.3,286.999,0,0
2.28643,31798,282.827,0,0
2.33668,31159,277.65,0,0
2.38693,31067.6,276.306,0,0
2.43719,31173.6,276.344,0,0
2.48744,31438.9,277.548,0,0
2.53769,31758.7,279.151,0,0
2.58794,32207.9,282.911,0,0
2.63819,32699,287.372,0,0
2.68844,32779.8,288.209,0,0
2.73869,32734.5,287.932,0,0
2.78894,32527.8,286.389,0,0
2.8392,32274.1,284.478,0,0
2.88945,31801.1,280.848,0,0
2.9397,31268,276.746,0,0
2.98995,31253.9,276.18,0,0
3.0402,31373.7,276.526,0,0
3.09045,31483.4,276.685,0,0
3.1407,31590.6,276.8,0,0
3.19095,32032.5,280.529,0,0
3.24121,32550.3,285.079,0,0
3.29146,32733.3,286.643,0,0
3.34171,32845.2,287.574,0,0
3.39196,32557.2,285.923,0,0
3.44221,32190.2,283.761,0,0
3.49246,31983.7,282.968,0,0
3.54271,31806.7,282.426,0,0
3.59296,31899.7,281.462,0,0
3.64322,32038.5,280.427,0,0
3.69347,35877.6,244.595,0,0
3.74372,40294.3,203.333,0,0
3.79397,59935.3,131.971,0,0
3.84422,81751.1,56.3091,0,0
3.89447,89853.4,28.1071,0,0
3.94472,96173.7,6.07228,0,0
3.99497,94861.8,11.0949,0,0
4.04523,92654.5,19.2918,0,0
4.09548,91801.5,16.3006,0,0
4.14573,91090.7,12.135,0,0
4.19598,89647.7,8.49287,0,0
4.24623,88136.7,4.89936,0,0
4.29648,88825.3,4.30816,0,0
4.34673,89692.3,3.96038,0,0
4.39698,88471.9,3.52607,0,0
4.44724,87106.4,3.08574,0,0
4.49749,88085.3,2.84642,0,0
4.54774,89200.6,2.61879,0,0
4.59799,87381.4,1.52186,0,0
4.64824,85423.9,0.383969,0,0
4.69849,87177.3,0.389073,0,0
4.74874,89065.2,0.435632,0,0
4.79899,87676.8,1.32581,0,0
4.84925,86204.5,2.23762,0,0
4.8995,87201.8,0.0816494,0,0
4.94975,88236.8,-2.12104,0,0
5,88242,0,0,0
