/*--------------------------------*- C++ -*----------------------------------*\
| =========                 |                                                 |
| \\      /  F ield         | OpenFOAM: The Open Source CFD Toolbox           |
|  \\    /   O peration     | Version:  2412                                  |
|   \\  /    A nd           | Website:  www.openfoam.com                      |
|    \\/     M anipulation  |                                                 |
\*---------------------------------------------------------------------------*/
FoamFile
{
    version     2.0;
    format      ascii;
    arch        "LSB;label=32;scalar=64";
    class       volVectorField;
    location    "0.0507121";
    object      U;
}
// * * * * * * * * * * * * * * * * * * * * * * * * * * * * * * * * * * * * * //

dimensions      [0 1 -1 0 0 0 0];

internalField   nonuniform List<vector> 
100
(
(12.1703 0 0)
(-4.32334 0 0)
(-1.01439 0 0)
(4.78056 0 0)
(8.33648 0 0)
(0.195447 0 0)
(-14.4402 0 0)
(-23.1694 0 0)
(-26.956 0 0)
(-2.45464 0 0)
(9.70089 0 0)
(-75.0076 0 0)
(-213.702 0 0)
(-226.404 0 0)
(-241.321 0 0)
(-246.996 0 0)
(-246.173 0 0)
(-243.697 0 0)
(-232.735 0 0)
(-212.016 0 0)
(-203.878 0 0)
(-201.677 0 0)
(-200.589 0 0)
(-201.392 0 0)
(-211.555 0 0)
(-219.914 0 0)
(-219.668 0 0)
(-217.959 0 0)
(-213.782 0 0)
(-208.768 0 0)
(-205.482 0 0)
(-203.576 0 0)
(-200.484 0 0)
(-195.661 0 0)
(-191.823 0 0)
(-190.134 0 0)
(-189.257 0 0)
(-191.323 0 0)
(-193.145 0 0)
(-192.36 0 0)
(-190.016 0 0)
(-183.679 0 0)
(-177.361 0 0)
(-174.932 0 0)
(-176.371 0 0)
(-192.848 0 0)
(-204.941 0 0)
(-205.114 0 0)
(-203.366 0 0)
(-199.663 0 0)
(-184.47 0 0)
(-159.006 0 0)
(-144.939 0 0)
(-139.746 0 0)
(-136.992 0 0)
(-134.86 0 0)
(-131.856 0 0)
(-128.101 0 0)
(-124.837 0 0)
(-123.342 0 0)
(-122.539 0 0)
(-121.968 0 0)
(-121.83 0 0)
(-121.716 0 0)
(-120.994 0 0)
(-119.133 0 0)
(-114.646 0 0)
(-106.723 0 0)
(-99.6298 0 0)
(-94.4734 0 0)
(-90.8551 0 0)
(-88.0307 0 0)
(-87.0478 0 0)
(-86.1431 0 0)
(-85.6389 0 0)
(-83.7066 0 0)
(-80.3392 0 0)
(-76.23 0 0)
(-70.9474 0 0)
(-67.4287 0 0)
(-63.0868 0 0)
(-60.5452 0 0)
(-57.1088 0 0)
(-54.4086 0 0)
(-50.9957 0 0)
(-47.4033 0 0)
(-44.4012 0 0)
(-39.947 0 0)
(-37.1234 0 0)
(-33.841 0 0)
(-31.3355 0 0)
(-27.9685 0 0)
(-24.9321 0 0)
(-21.2497 0 0)
(-17.6224 0 0)
(-14.2207 0 0)
(-10.6646 0 0)
(-7.67897 0 0)
(-4.15513 0 0)
(-1.62664 0 0)
)
;

boundaryField
{
    sides
    {
        type            fixedValue;
        value           uniform (0 0 0);
    }
    empty
    {
        type            empty;
    }
}


// ************************************************************************* //
