/*--------------------------------*- C++ -*----------------------------------*\
| =========                 |                                                 |
| \\      /  F ield         | OpenFOAM: The Open Source CFD Toolbox           |
|  \\    /   O peration     | Version:  2412                                  |
|   \\  /    A nd           | Website:  www.openfoam.com                      |
|    \\/     M anipulation  |                                                 |
\*---------------------------------------------------------------------------*/
FoamFile
{
    version     2.0;
    format      ascii;
    arch        "LSB;label=32;scalar=64";
    class       volScalarField;
    location    "0.0202883";
    object      rhoY_Y_N2;
}
// * * * * * * * * * * * * * * * * * * * * * * * * * * * * * * * * * * * * * //

dimensions      [1 -3 0 0 0 0 0];

internalField   nonuniform List<scalar> 
100
(
0.652412
0.652452
0.652732
0.652681
0.652375
0.652002
0.651574
0.651109
0.650386
0.649286
0.647824
0.64637
0.645278
0.644748
0.644876
0.646599
0.650795
0.656091
0.662309
0.668674
0.675123
0.671962
0.660861
0.648701
0.636586
0.626076
0.615822
0.608245
0.601646
0.594913
0.586695
0.578776
0.570474
0.562804
0.55517
0.547849
0.540286
0.532772
0.525423
0.518414
0.511616
0.504689
0.497346
0.490338
0.48525
0.479429
0.472135
0.466647
0.463434
0.720237
0.515133
0.509834
0.502462
0.498441
0.497497
0.493625
0.483297
0.480588
0.495393
0.503551
0.48359
0.45813
0.466519
0.512073
0.52122
0.469566
0.434919
0.458838
0.530291
0.536495
0.464823
0.421588
0.446031
0.52705
0.543622
0.481304
0.41862
0.568215
1.01959
1.07086
1.05295
1.06433
1.01332
1.01816
1.03922
1.02218
1.05138
1.16316
0.995399
0.595407
0.246826
0.0759296
0.0185129
0.00335963
0.00043913
3.69871e-05
1.64907e-06
8.15634e-09
-1.48794e-09
-1.08647e-10
)
;

boundaryField
{
    sides
    {
        type            calculated;
        value           nonuniform List<scalar> 2(0 1.12308);
    }
    empty
    {
        type            empty;
    }
}


// ************************************************************************* //
