/*--------------------------------*- C++ -*----------------------------------*\
| =========                 |                                                 |
| \\      /  F ield         | OpenFOAM: The Open Source CFD Toolbox           |
|  \\    /   O peration     | Version:  2412                                  |
|   \\  /    A nd           | Website:  www.openfoam.com                      |
|    \\/     M anipulation  |                                                 |
\*---------------------------------------------------------------------------*/
FoamFile
{
    version     2.0;
    format      ascii;
    arch        "LSB;label=32;scalar=64";
    class       volScalarField;
    location    "0.0111828";
    object      TTR;
}
// * * * * * * * * * * * * * * * * * * * * * * * * * * * * * * * * * * * * * //

dimensions      [0 0 0 1 0 0 0];

internalField   nonuniform List<scalar> 
100
(
300
300
300
300
300
300
300
300
300
300
300
299.999
299.935
299.186
296.689
293.304
290.422
288.145
286.175
284.32
282.496
280.681
278.865
277.058
275.235
273.462
271.566
269.977
267.702
266.899
263.267
264.666
258.17
262.577
254.154
258.404
252.216
253.942
249.158
249.877
247.12
245.872
243.43
241.797
240.194
239.857
239.225
235.001
230.024
230.744
237.209
240.926
232.795
218.824
222.05
245.167
254.266
232.036
209.179
217.96
249.821
259.048
233.955
209.857
215.728
243.868
257.692
241.687
216.432
211.05
229.806
256.297
262.756
242.567
214.425
200
202.209
220.574
247.455
273.487
294.195
308.386
316.32
319.671
321.229
322.213
322.83
323.359
323.73
323.64
323.123
322.433
322.085
321.91
321.8
323.83
318.811
340.621
350.451
444.387
)
;

boundaryField
{
    sides
    {
        type            zeroGradient;
    }
    empty
    {
        type            empty;
    }
}


// ************************************************************************* //
