/*--------------------------------*- C++ -*----------------------------------*\
| =========                 |                                                 |
| \\      /  F ield         | OpenFOAM: The Open Source CFD Toolbox           |
|  \\    /   O peration     | Version:  2412                                  |
|   \\  /    A nd           | Website:  www.openfoam.com                      |
|    \\/     M anipulation  |                                                 |
\*---------------------------------------------------------------------------*/
FoamFile
{
    version     2.0;
    format      ascii;
    arch        "LSB;label=32;scalar=64";
    class       surfaceScalarField;
    location    "0.0155404";
    object      phiRhoY_Y_N2;
}
// * * * * * * * * * * * * * * * * * * * * * * * * * * * * * * * * * * * * * //

dimensions      [1 0 -1 0 0 0 0];

internalField   nonuniform List<scalar> 
99
(
60.9812
108.935
140.219
163.042
182.471
200.401
217.455
233.886
249.78
265.144
279.966
294.242
307.976
321.179
333.865
346.044
357.729
368.925
379.645
389.88
399.644
408.926
417.702
426.075
433.886
441.457
448.529
455.183
461.656
467.428
473.002
478.294
483.178
487.616
491.866
496.034
499.682
502.824
505.796
508.92
511.658
513.556
515.139
517.111
518.569
519.359
521.231
523.011
522.009
519.058
518.857
522.544
529.891
530.138
512.303
504.873
520.222
545.963
543.742
496.543
488.076
520.459
562.957
556.381
488.887
478.302
513.624
565.011
566.127
501.117
474.164
495.403
558.281
566.42
532.229
480.327
477.932
513.396
575.224
576.689
536.993
464.999
450.477
471.076
526.148
592.893
577.054
190.673
47.0935
12.9109
3.87924
0.548364
0.0393248
0.00418907
0.000378877
1.74311e-05
6.01356e-08
0
0
)
;

boundaryField
{
    sides
    {
        type            calculated;
        value           uniform 0;
    }
    empty
    {
        type            empty;
    }
}


// ************************************************************************* //
