/*--------------------------------*- C++ -*----------------------------------*\
| =========                 |                                                 |
| \\      /  F ield         | OpenFOAM: The Open Source CFD Toolbox           |
|  \\    /   O peration     | Version:  2412                                  |
|   \\  /    A nd           | Website:  www.openfoam.com                      |
|    \\/     M anipulation  |                                                 |
\*---------------------------------------------------------------------------*/
FoamFile
{
    version     2.0;
    format      ascii;
    arch        "LSB;label=32;scalar=64";
    class       surfaceScalarField;
    location    "0.0061758";
    object      phiRhoY_Y_N2;
}
// * * * * * * * * * * * * * * * * * * * * * * * * * * * * * * * * * * * * * //

dimensions      [1 0 -1 0 0 0 0];

internalField   nonuniform List<scalar> 
99
(
-3.41061e-13
-6.82121e-13
-3.41061e-13
-7.95808e-13
-9.09495e-13
-4.54747e-13
-7.95808e-13
-7.95808e-13
-7.95808e-13
-5.68434e-13
-3.41061e-13
-7.95808e-13
-4.54747e-13
-2.27374e-13
-2.27374e-13
4.54747e-13
4.54747e-13
5.68434e-13
6.82121e-13
3.41061e-13
7.95808e-13
3.41061e-13
1.13687e-12
1.61435e-11
8.1709e-09
3.79084e-06
0.00130248
0.208899
6.82065
44.7904
109.938
171.954
222.15
263.553
299.49
331.533
360.563
386.676
409.818
431.142
448.348
463.216
479.071
488.475
494.33
504.063
520.807
522.476
508.249
505.586
523.541
549.514
544.32
498.566
492.753
519.252
546.864
539.114
499.989
497.435
521.219
567.23
550.421
452.569
301.867
176.861
93.6427
43.8789
18.6779
7.55791
2.82624
0.988301
0.322044
0.0930349
0.0241524
0.00570749
0.00129067
0.000278761
4.59364e-05
1.32876e-06
5.62377e-11
8.18491e-21
9.23435e-37
7.96546e-59
0
0
0
0
0
0
0
0
0
0
0
0
0
0
0
)
;

boundaryField
{
    sides
    {
        type            calculated;
        value           uniform 0;
    }
    empty
    {
        type            empty;
    }
}


// ************************************************************************* //
