/*--------------------------------*- C++ -*----------------------------------*\
| =========                 |                                                 |
| \\      /  F ield         | OpenFOAM: The Open Source CFD Toolbox           |
|  \\    /   O peration     | Version:  2412                                  |
|   \\  /    A nd           | Website:  www.openfoam.com                      |
|    \\/     M anipulation  |                                                 |
\*---------------------------------------------------------------------------*/
FoamFile
{
    version     2.0;
    format      ascii;
    arch        "LSB;label=32;scalar=64";
    class       volScalarField;
    location    "0.0416546";
    object      TTR;
}
// * * * * * * * * * * * * * * * * * * * * * * * * * * * * * * * * * * * * * //

dimensions      [0 0 0 1 0 0 0];

internalField   nonuniform List<scalar> 
100
(
200
200
200
200
200
200
200
200
200
200
200
200
200
200
200
200
200
200
232.52
257.472
262.446
259.945
258.3
258.721
259.332
260.681
263.382
265.475
266.434
267.333
267.441
265.555
263.772
263.845
264.601
265.756
268.124
269.782
270.561
270.912
271.206
270.516
270.42
270.884
271.868
272.922
273.42
273.409
272.291
271.98
272.327
273.463
274.639
275.339
275.731
274.936
274.763
275.031
276.718
278.45
280.285
280.051
280.639
277.905
278.165
278.121
278.696
281.533
279.423
286.261
280.255
288.488
282.211
286.63
287.336
283.979
291.392
282.99
292.893
286.259
291.852
289.227
288.339
286.951
285.5
289.932
295.282
313.645
341.79
375.423
393.499
403.369
401.428
405.419
400.702
403.682
400.46
402.411
402.176
402.002
)
;

boundaryField
{
    sides
    {
        type            zeroGradient;
    }
    empty
    {
        type            empty;
    }
}


// ************************************************************************* //
