/*--------------------------------*- C++ -*----------------------------------*\
| =========                 |                                                 |
| \\      /  F ield         | OpenFOAM: The Open Source CFD Toolbox           |
|  \\    /   O peration     | Version:  2412                                  |
|   \\  /    A nd           | Website:  www.openfoam.com                      |
|    \\/     M anipulation  |                                                 |
\*---------------------------------------------------------------------------*/
FoamFile
{
    version     2.0;
    format      ascii;
    arch        "LSB;label=32;scalar=64";
    class       volVectorField;
    location    "0.0312012";
    object      U;
}
// * * * * * * * * * * * * * * * * * * * * * * * * * * * * * * * * * * * * * //

dimensions      [0 1 -1 0 0 0 0];

internalField   nonuniform List<vector> 
100
(
(2.17655 0 0)
(6.60107 0 0)
(10.9506 0 0)
(15.3762 0 0)
(19.6817 0 0)
(24.1823 0 0)
(28.3941 0 0)
(33.0362 0 0)
(37.1242 0 0)
(41.8616 0 0)
(45.878 0 0)
(50.5742 0 0)
(54.7831 0 0)
(59.2846 0 0)
(63.764 0 0)
(68.0023 0 0)
(72.6332 0 0)
(76.7512 0 0)
(81.4593 0 0)
(85.6148 0 0)
(90.3124 0 0)
(94.5461 0 0)
(99.1688 0 0)
(103.481 0 0)
(108.031 0 0)
(112.399 0 0)
(116.898 0 0)
(121.296 0 0)
(125.76 0 0)
(130.177 0 0)
(134.619 0 0)
(139.037 0 0)
(143.455 0 0)
(147.859 0 0)
(152.259 0 0)
(156.646 0 0)
(161.034 0 0)
(165.407 0 0)
(169.788 0 0)
(173.999 0 0)
(178.243 0 0)
(182.521 0 0)
(186.555 0 0)
(190.469 0 0)
(194.182 0 0)
(197.441 0 0)
(200.128 0 0)
(202.103 0 0)
(203.575 0 0)
(205.623 0 0)
(207.615 0 0)
(209.546 0 0)
(211.959 0 0)
(162.844 0 0)
(-27.2935 0 0)
(-78.6906 0 0)
(-71.2182 0 0)
(-62.258 0 0)
(-57.1746 0 0)
(-52.4264 0 0)
(-47.3801 0 0)
(-42.042 0 0)
(-43.7006 0 0)
(-38.2996 0 0)
(-37.6627 0 0)
(-35.2487 0 0)
(-32.4022 0 0)
(-32.4439 0 0)
(-25.024 0 0)
(-28.0553 0 0)
(-12.5159 0 0)
(-0.771551 0 0)
(3.92391 0 0)
(6.55911 0 0)
(2.44645 0 0)
(4.55558 0 0)
(2.81318 0 0)
(4.25866 0 0)
(4.1262 0 0)
(2.2283 0 0)
(-0.710882 0 0)
(-3.57277 0 0)
(-3.0599 0 0)
(-1.91203 0 0)
(-0.221163 0 0)
(0.120328 0 0)
(-0.0551691 0 0)
(-0.202149 0 0)
(-0.490199 0 0)
(1.22894 0 0)
(2.08363 0 0)
(2.08737 0 0)
(-0.12013 0 0)
(-3.93673 0 0)
(-4.53689 0 0)
(-2.61413 0 0)
(1.18467 0 0)
(4.84349 0 0)
(5.81695 0 0)
(3.02758 0 0)
)
;

boundaryField
{
    sides
    {
        type            fixedValue;
        value           uniform (0 0 0);
    }
    empty
    {
        type            empty;
    }
}


// ************************************************************************* //
