/*--------------------------------*- C++ -*----------------------------------*\
| =========                 |                                                 |
| \\      /  F ield         | OpenFOAM: The Open Source CFD Toolbox           |
|  \\    /   O peration     | Version:  2412                                  |
|   \\  /    A nd           | Website:  www.openfoam.com                      |
|    \\/     M anipulation  |                                                 |
\*---------------------------------------------------------------------------*/
FoamFile
{
    version     2.0;
    format      ascii;
    arch        "LSB;label=32;scalar=64";
    class       volVectorField;
    location    "6.86321e-05";
    object      U;
}
// * * * * * * * * * * * * * * * * * * * * * * * * * * * * * * * * * * * * * //

dimensions      [0 1 -1 0 0 0 0];

internalField   nonuniform List<vector> 
1800
(
(2.9 4.72258e-15 0)
(2.9 6.16021e-14 0)
(2.9 -3.02988e-14 0)
(2.9 1.80409e-14 0)
(2.9 2.6582e-14 0)
(2.9 -5.69308e-16 0)
(2.9 -1.70856e-14 0)
(2.9 -5.43379e-15 0)
(2.9 -2.09829e-14 0)
(2.9 1.95383e-14 0)
(2.9 2.01738e-14 0)
(2.9 2.92268e-14 0)
(2.9 8.30399e-16 0)
(2.9 -1.27495e-14 0)
(2.9 -2.69514e-14 0)
(2.9 -6.80137e-15 0)
(2.9 2.68008e-15 0)
(2.9 -2.56072e-14 0)
(2.9 -6.435e-14 0)
(2.9 -1.37207e-14 0)
(2.9 -4.68691e-15 0)
(2.9 -2.38861e-14 0)
(2.9 1.03741e-14 0)
(2.9 -2.09085e-14 0)
(2.9 1.40603e-14 0)
(2.9 -1.2035e-14 0)
(2.9 -1.88403e-14 0)
(2.9 -9.52927e-16 0)
(2.9 -5.19737e-15 0)
(2.9 -1.73661e-14 0)
(2.9 -1.47567e-14 0)
(2.9 -9.54443e-15 0)
(2.9 -6.27756e-15 0)
(2.9 -1.71705e-14 0)
(2.9 -1.16147e-14 0)
(2.9 -2.10707e-14 0)
(2.9 -1.02032e-14 0)
(2.9 -4.61225e-15 0)
(2.9 -2.91556e-14 0)
(2.9 -1.75904e-14 0)
(2.9 -1.13695e-14 0)
(2.9 -1.2864e-14 0)
(2.9 -6.71733e-15 0)
(2.9 1.65194e-14 0)
(2.9 -2.27496e-14 0)
(2.9 -1.84301e-14 0)
(2.9 -2.31609e-14 0)
(2.9 -2.06574e-15 0)
(2.9 -3.21808e-14 0)
(2.9 -2.24525e-14 0)
(2.9 -2.6729e-14 0)
(2.9 -2.13395e-14 0)
(2.9 -8.80965e-15 0)
(2.9 -4.79662e-14 0)
(2.9 -4.5398e-15 0)
(2.9 -9.13001e-15 0)
(2.9 -7.02385e-15 0)
(2.9 -2.75603e-14 0)
(2.9 1.42244e-14 0)
(2.9 -9.45463e-15 0)
(2.9 1.31193e-14 0)
(2.9 4.72964e-15 0)
(2.9 -6.46026e-14 0)
(2.9 -7.19405e-15 0)
(2.9 -5.51384e-15 0)
(2.9 8.55249e-15 0)
(2.9 -1.63622e-14 0)
(2.9 -1.56021e-14 0)
(2.9 -1.88587e-14 0)
(2.9 1.34707e-14 0)
(2.9 8.62799e-15 0)
(2.9 -5.10049e-15 0)
(2.9 -1.26797e-14 0)
(2.9 -1.28816e-14 0)
(2.9 1.3178e-14 0)
(2.9 3.9342e-14 0)
(2.9 1.75933e-14 0)
(2.9 -4.47069e-14 0)
(2.9 -6.79009e-14 0)
(2.9 -5.0211e-14 0)
(2.9 -1.8925e-14 0)
(2.9 -6.15983e-14 0)
(2.9 -1.79556e-15 0)
(2.9 -2.14226e-15 0)
(2.9 8.93648e-15 0)
(2.9 -5.38162e-14 0)
(2.9 -6.05586e-15 0)
(2.9 1.21732e-15 0)
(2.9 -2.05924e-14 0)
(2.9 -7.22124e-14 0)
(2.9 -4.83506e-14 0)
(2.9 -2.12368e-14 0)
(2.9 -2.28059e-14 0)
(2.9 -6.46336e-14 0)
(2.9 -4.94045e-14 0)
(2.9 -6.78648e-14 0)
(2.9 -2.9694e-14 0)
(2.9 -7.38015e-15 0)
(2.9 -3.38844e-14 0)
(2.9 -4.60234e-14 0)
(2.9 -3.78674e-14 0)
(2.9 -5.00774e-14 0)
(2.9 -2.66715e-14 0)
(2.9 1.27211e-14 0)
(2.9 -9.51353e-14 0)
(2.9 -6.05918e-14 0)
(2.9 -1.00536e-13 0)
(2.9 -9.53606e-14 0)
(2.9 -7.48474e-14 0)
(2.9 -6.01246e-14 0)
(2.9 -5.13052e-14 0)
(2.9 -4.40077e-15 0)
(2.9 -1.91729e-14 0)
(2.9 -8.03406e-14 0)
(2.9 -2.10306e-14 0)
(2.9 -3.41568e-14 0)
(2.9 -1.87997e-14 0)
(2.9 -5.74809e-14 0)
(2.9 7.11908e-15 0)
(2.9 -4.06816e-14 0)
(2.9 -2.96076e-14 0)
(2.9 -1.7952e-14 0)
(2.9 -5.94763e-14 0)
(2.9 -3.54492e-14 0)
(2.9 2.907e-14 0)
(2.9 -1.22695e-14 0)
(2.9 -2.3936e-14 0)
(2.9 -3.16498e-14 0)
(2.9 2.18113e-14 0)
(2.9 1.27187e-15 0)
(2.9 5.61797e-14 0)
(2.9 -1.54261e-14 0)
(2.9 4.60961e-14 0)
(2.9 4.27881e-14 0)
(2.9 5.63466e-14 0)
(2.9 6.99385e-14 0)
(2.9 6.16822e-14 0)
(2.9 -4.99516e-15 0)
(2.9 5.84669e-15 0)
(2.9 -4.56262e-15 0)
(2.9 -5.06005e-14 0)
(2.9 -4.86517e-14 0)
(2.9 3.28056e-14 0)
(2.9 -1.8857e-16 0)
(2.9 -7.94564e-16 0)
(2.9 -3.05173e-16 0)
(2.9 4.94007e-15 0)
(2.9 1.71555e-14 0)
(2.9 2.04921e-14 0)
(2.9 -2.61411e-14 0)
(2.9 -6.8779e-14 0)
(2.9 -1.0508e-13 0)
(2.9 -5.87992e-14 0)
(2.9 -6.60472e-14 0)
(2.9 -5.06848e-14 0)
(2.9 -3.20201e-14 0)
(2.9 -5.05714e-14 0)
(2.9 -7.85649e-14 0)
(2.9 -2.37942e-14 0)
(2.9 -3.11163e-14 0)
(2.9 -9.47764e-14 0)
(2.9 -8.15618e-14 0)
(2.9 -6.3027e-14 0)
(2.9 -4.35164e-14 0)
(2.9 -5.39523e-14 0)
(2.9 -8.6139e-14 0)
(2.9 -1.41639e-13 0)
(2.9 -9.47653e-14 0)
(2.9 -4.48041e-14 0)
(2.9 1.12164e-15 0)
(2.9 -1.96322e-14 0)
(2.9 -1.70793e-14 0)
(2.9 -2.94852e-14 0)
(2.9 -5.84623e-14 0)
(2.9 -8.7929e-15 0)
(2.9 -3.233e-14 0)
(2.9 -3.30192e-14 0)
(2.9 -4.00716e-14 0)
(2.9 -4.13103e-15 0)
(2.9 7.60039e-15 0)
(2.9 4.60763e-15 0)
(2.9 -4.00902e-14 0)
(2.9 -5.09261e-14 0)
(2.9 -7.82368e-15 0)
(2.9 -1.33056e-14 0)
(2.9 -1.00853e-14 0)
(2.9 -2.95958e-14 0)
(2.9 -3.36426e-14 0)
(2.9 1.10137e-14 0)
(2.9 2.59828e-14 0)
(2.9 3.6811e-14 0)
(2.9 -1.35926e-15 0)
(2.9 -8.12907e-15 0)
(2.9 -2.59683e-14 0)
(2.9 5.08803e-15 0)
(2.9 1.99618e-14 0)
(2.9 2.91757e-14 0)
(2.9 1.0868e-15 0)
(2.9 9.07219e-15 0)
(2.9 -3.39362e-15 0)
(2.9 -6.61043e-14 0)
(2.9 -4.30015e-14 0)
(2.9 7.35639e-15 0)
(2.9 2.24332e-14 0)
(2.9 -2.71204e-14 0)
(2.9 -8.94313e-16 0)
(2.9 -5.62359e-16 0)
(2.9 2.95951e-15 0)
(2.9 1.62001e-14 0)
(2.9 -4.33928e-15 0)
(2.9 -7.18691e-14 0)
(2.9 -5.59737e-14 0)
(2.9 -5.17584e-14 0)
(2.9 -6.4181e-14 0)
(2.9 -2.43396e-14 0)
(2.9 -1.96913e-14 0)
(2.9 -2.93546e-14 0)
(2.9 -2.57039e-14 0)
(2.9 -3.46406e-14 0)
(2.9 -2.64052e-14 0)
(2.9 -6.52597e-14 0)
(2.9 -3.68449e-14 0)
(2.9 -3.61423e-14 0)
(2.9 4.26482e-15 0)
(2.9 2.72117e-14 0)
(2.9 -4.13534e-14 0)
(2.9 -6.33128e-14 0)
(2.9 -5.40404e-14 0)
(2.9 1.86703e-15 0)
(2.9 -1.66891e-14 0)
(2.9 -1.78886e-14 0)
(2.9 -2.43868e-14 0)
(2.9 -3.22334e-14 0)
(2.9 -3.80997e-14 0)
(2.9 -2.43819e-14 0)
(2.9 -2.59253e-14 0)
(2.9 -2.96552e-14 0)
(2.9 -5.97026e-15 0)
(2.9 2.60032e-14 0)
(2.9 6.07063e-14 0)
(2.9 1.93363e-14 0)
(2.9 -7.13154e-14 0)
(2.9 7.30124e-15 0)
(2.9 -3.36139e-14 0)
(2.9 -3.70064e-15 0)
(2.9 -1.77617e-14 0)
(2.9 2.15852e-14 0)
(2.9 1.00516e-14 0)
(2.9 1.22983e-14 0)
(2.9 6.33333e-14 0)
(2.9 1.42936e-14 0)
(2.9 -4.09485e-14 0)
(2.9 -3.98331e-14 0)
(2.9 -2.91528e-14 0)
(2.9 -6.90944e-14 0)
(2.9 -4.15278e-15 0)
(2.9 5.29019e-15 0)
(2.9 -5.37363e-15 0)
(2.9 -6.23641e-15 0)
(2.9 -6.75589e-14 0)
(2.9 -1.94284e-14 0)
(2.9 -4.21451e-14 0)
(2.9 -4.68953e-14 0)
(2.9 -1.09425e-14 0)
(2.9 -6.65488e-15 0)
(2.9 -5.0951e-15 0)
(2.9 2.65593e-14 0)
(2.9 -3.21782e-14 0)
(2.9 -6.72105e-15 0)
(2.9 2.7861e-14 0)
(2.9 -6.38074e-14 0)
(2.9 -4.49438e-14 0)
(2.9 -7.1879e-15 0)
(2.9 -9.36667e-15 0)
(2.9 -5.24819e-14 0)
(2.9 -2.32806e-14 0)
(2.9 -1.21646e-14 0)
(2.9 -9.70892e-15 0)
(2.9 -2.65825e-14 0)
(2.9 -3.81191e-14 0)
(2.9 5.97832e-15 0)
(2.9 4.89608e-14 0)
(2.9 4.12758e-14 0)
(2.9 8.76189e-14 0)
(2.9 6.3629e-14 0)
(2.9 7.1217e-14 0)
(2.9 2.23799e-14 0)
(2.9 -6.85607e-14 0)
(2.9 -4.26149e-15 0)
(2.9 -2.53372e-16 0)
(2.9 5.47954e-15 0)
(2.9 -1.99241e-14 0)
(2.9 -2.92757e-14 0)
(2.9 -2.45564e-14 0)
(2.9 -7.4479e-14 0)
(2.9 -4.90644e-14 0)
(2.9 -4.04846e-15 0)
(2.9 3.64719e-14 0)
(2.9 6.22788e-14 0)
(2.9 -5.17044e-15 0)
(2.9 -1.91566e-15 0)
(2.9 2.9287e-15 0)
(2.9 -1.6275e-14 0)
(2.9 -8.05616e-14 0)
(2.9 2.93669e-14 0)
(2.9 -2.21627e-14 0)
(2.9 -1.35812e-14 0)
(2.9 1.46695e-14 0)
(2.9 2.91931e-14 0)
(2.9 6.21213e-14 0)
(2.9 2.95452e-15 0)
(2.9 1.08307e-14 0)
(2.9 4.41397e-14 0)
(2.9 -2.52446e-15 0)
(2.9 -1.74684e-14 0)
(2.9 1.25263e-14 0)
(2.9 -1.06797e-16 0)
(2.9 -1.33535e-14 0)
(2.9 -6.52146e-15 0)
(2.9 -3.05133e-15 0)
(2.9 -1.36334e-14 0)
(2.9 -1.1082e-14 0)
(2.9 8.23411e-15 0)
(2.9 1.34334e-14 0)
(2.9 2.7281e-14 0)
(2.9 -3.51798e-14 0)
(2.9 2.55904e-14 0)
(2.9 -1.20579e-14 0)
(2.9 -2.93441e-14 0)
(2.9 6.25172e-14 0)
(2.9 2.21977e-15 0)
(2.9 5.11729e-14 0)
(2.9 9.74979e-15 0)
(2.9 1.60151e-14 0)
(2.9 -5.63286e-14 0)
(2.9 -6.15046e-14 0)
(2.9 -4.61847e-14 0)
(2.9 4.85145e-14 0)
(2.9 1.64103e-14 0)
(2.9 -3.78703e-14 0)
(2.9 3.86143e-14 0)
(2.9 -3.46881e-14 0)
(2.9 2.58286e-14 0)
(2.9 2.30155e-14 0)
(2.9 1.80449e-14 0)
(2.9 -6.59903e-15 0)
(2.9 -3.10936e-14 0)
(2.9 3.95035e-14 0)
(2.9 3.9589e-14 0)
(2.9 3.86347e-14 0)
(2.9 3.7838e-14 0)
(2.9 3.55656e-14 0)
(2.9 2.19568e-14 0)
(2.9 -1.48718e-14 0)
(2.9 -6.09112e-14 0)
(2.9 -1.38597e-14 0)
(2.9 -3.12469e-14 0)
(2.9 3.47208e-14 0)
(2.9 3.71361e-14 0)
(2.9 -9.41904e-14 0)
(2.9 -3.94716e-15 0)
(2.9 6.36437e-14 0)
(2.9 1.1587e-14 0)
(2.9 -3.89664e-14 0)
(2.9 1.43206e-14 0)
(2.9 -2.84936e-14 0)
(2.9 -2.0319e-14 0)
(2.9 1.14906e-15 0)
(2.9 1.93294e-14 0)
(2.9 1.52963e-14 0)
(2.9 3.71878e-14 0)
(2.9 3.32621e-14 0)
(2.9 2.36804e-14 0)
(2.9 -1.58971e-14 0)
(2.9 -2.72981e-15 0)
(2.9 -4.59478e-14 0)
(2.9 -3.34498e-15 0)
(2.9 -2.30064e-14 0)
(2.9 3.47252e-14 0)
(2.9 5.36193e-14 0)
(2.9 2.45264e-14 0)
(2.9 1.14013e-14 0)
(2.9 9.9819e-15 0)
(2.9 4.45892e-16 0)
(2.9 1.18823e-14 0)
(2.9 3.18002e-14 0)
(2.9 2.9785e-14 0)
(2.9 1.35404e-14 0)
(2.9 -6.62908e-14 0)
(2.9 6.41196e-16 0)
(2.9 3.0187e-14 0)
(2.9 6.61197e-14 0)
(2.9 2.53685e-14 0)
(2.9 -9.83862e-15 0)
(2.9 -2.30015e-14 0)
(2.9 -1.16473e-14 0)
(2.9 8.76739e-15 0)
(2.9 2.01151e-14 0)
(2.9 2.126e-14 0)
(2.9 -2.12268e-14 0)
(2.9 4.89718e-14 0)
(2.9 1.56217e-14 0)
(2.9 4.16196e-15 0)
(2.9 -2.3169e-14 0)
(2.9 2.55726e-15 0)
(2.9 -4.60391e-15 0)
(2.9 2.2431e-14 0)
(2.9 1.27542e-14 0)
(2.9 5.18669e-16 0)
(2.9 1.63908e-14 0)
(2.9 -7.73775e-15 0)
(2.9 -1.18769e-14 0)
(2.9 1.11756e-14 0)
(2.9 -1.59057e-14 0)
(2.9 -4.07783e-15 0)
(2.9 2.5072e-14 0)
(2.9 -2.57474e-14 0)
(2.9 -5.73819e-15 0)
(2.9 -3.44049e-14 0)
(2.9 -6.41445e-14 0)
(2.9 -4.7893e-15 0)
(2.9 2.16729e-14 0)
(2.9 1.33485e-14 0)
(2.9 -1.26786e-14 0)
(2.9 1.2792e-14 0)
(2.9 -1.29222e-14 0)
(2.9 3.96429e-15 0)
(2.9 1.33235e-14 0)
(2.9 1.96168e-14 0)
(2.9 1.53457e-15 0)
(2.9 1.06336e-14 0)
(2.9 5.77342e-14 0)
(2.9 3.27198e-14 0)
(2.9 1.36117e-14 0)
(2.9 -4.92294e-15 0)
(2.9 -4.35034e-14 0)
(2.9 6.11433e-15 0)
(2.9 -9.50406e-15 0)
(2.9 3.34235e-14 0)
(2.9 5.19183e-14 0)
(2.9 7.35786e-14 0)
(2.9 1.73268e-14 0)
(2.9 -5.65836e-15 0)
(2.9 3.13105e-14 0)
(2.9 -9.13741e-15 0)
(2.9 1.83744e-14 0)
(2.9 5.03284e-14 0)
(2.9 -5.88862e-15 0)
(2.9 7.44766e-15 0)
(2.9 4.26237e-14 0)
(2.9 2.07343e-14 0)
(2.9 4.49412e-14 0)
(2.9 4.16737e-14 0)
(2.9 -1.35298e-14 0)
(2.9 4.31881e-14 0)
(2.9 2.15135e-14 0)
(2.9 6.50384e-14 0)
(2.9 2.69896e-14 0)
(2.9 3.95279e-14 0)
(2.9 -6.7328e-14 0)
(2.9 7.93618e-14 0)
(2.9 9.40526e-14 0)
(2.9 3.4443e-14 0)
(2.9 -3.05242e-14 0)
(2.9 6.65618e-16 0)
(2.9 -1.26848e-14 0)
(2.9 2.88056e-15 0)
(2.9 1.19995e-14 0)
(2.9 4.99614e-15 0)
(2.9 -2.02975e-14 0)
(2.9 2.29714e-14 0)
(2.9 2.06104e-14 0)
(2.9 4.00737e-14 0)
(2.9 2.25472e-14 0)
(2.9 3.05546e-14 0)
(2.9 2.9685e-14 0)
(2.9 -2.12626e-14 0)
(2.9 -4.32233e-15 0)
(2.9 -8.21973e-14 0)
(2.9 -8.18222e-14 0)
(2.9 -1.6945e-14 0)
(2.9 1.54417e-14 0)
(2.9 -7.83837e-16 0)
(2.9 1.59504e-16 0)
(2.9 1.20655e-15 0)
(2.9 1.38815e-14 0)
(2.9 -8.72252e-15 0)
(2.9 -2.63457e-14 0)
(2.9 3.37786e-14 0)
(2.9 4.96146e-14 0)
(2.9 1.2574e-14 0)
(2.9 2.08207e-14 0)
(2.9 5.97987e-14 0)
(2.9 3.37527e-14 0)
(2.9 2.27497e-14 0)
(2.9 -1.41057e-14 0)
(2.9 -1.47517e-14 0)
(2.9 -1.4184e-14 0)
(2.9 1.43285e-14 0)
(2.9 4.46862e-14 0)
(2.9 5.30467e-14 0)
(2.9 3.27823e-14 0)
(2.9 -2.59944e-14 0)
(2.9 5.10927e-15 0)
(2.9 4.58444e-14 0)
(2.9 3.05796e-14 0)
(2.9 1.66287e-14 0)
(2.9 1.28134e-14 0)
(2.9 4.52447e-14 0)
(2.9 2.50494e-14 0)
(2.9 1.02991e-14 0)
(2.9 -1.23393e-14 0)
(2.9 2.48578e-14 0)
(2.9 4.66526e-14 0)
(2.9 3.14792e-14 0)
(2.9 5.41112e-14 0)
(2.9 3.82151e-14 0)
(2.9 1.54398e-14 0)
(2.9 4.74734e-14 0)
(2.9 -1.76308e-14 0)
(2.9 4.50194e-14 0)
(2.9 7.28856e-14 0)
(2.9 1.27844e-14 0)
(2.9 -3.44355e-14 0)
(2.9 -2.29485e-14 0)
(2.9 -1.47665e-14 0)
(2.9 -2.39114e-14 0)
(2.9 2.81387e-14 0)
(2.9 7.02218e-14 0)
(2.9 1.67357e-14 0)
(2.9 2.70602e-14 0)
(2.9 7.90518e-14 0)
(2.9 1.77717e-14 0)
(2.9 4.44762e-14 0)
(2.9 3.95763e-15 0)
(2.9 2.37127e-14 0)
(2.9 8.21739e-14 0)
(2.9 -3.59091e-14 0)
(2.9 -5.71521e-14 0)
(2.9 -4.69864e-14 0)
(2.9 -6.26981e-14 0)
(2.9 -1.03282e-14 0)
(2.9 -6.71607e-16 0)
(2.9 3.55393e-14 0)
(2.9 -3.32423e-14 0)
(2.9 4.38678e-14 0)
(2.9 7.79643e-15 0)
(2.9 -3.75862e-14 0)
(2.9 3.03452e-14 0)
(2.9 1.99053e-14 0)
(2.9 6.19702e-14 0)
(2.9 -6.68892e-15 0)
(2.9 3.79174e-16 0)
(2.9 2.58038e-14 0)
(2.9 -1.01043e-14 0)
(2.9 -2.31078e-14 0)
(2.9 -1.91785e-14 0)
(2.9 5.39803e-14 0)
(2.9 1.28648e-14 0)
(2.9 -6.91116e-15 0)
(2.9 4.25215e-14 0)
(2.9 6.13609e-14 0)
(2.9 -4.32617e-14 0)
(2.9 -1.51897e-14 0)
(2.9 3.52591e-14 0)
(2.9 -1.7303e-14 0)
(2.9 -2.29621e-14 0)
(2.9 2.26634e-15 0)
(2.9 5.78722e-14 0)
(2.9 -4.93216e-14 0)
(2.9 -3.09083e-15 0)
(2.9 -6.03855e-14 0)
(2.9 -3.83156e-14 0)
(2.9 -1.59528e-14 0)
(2.9 -1.20454e-14 0)
(2.9 9.76424e-14 0)
(2.9 3.93186e-14 0)
(2.9 -2.43079e-14 0)
(2.9 1.74026e-14 0)
(2.9 -4.22407e-16 0)
(2.9 1.74075e-15 0)
(2.9 4.91519e-14 0)
(2.9 -1.50907e-14 0)
(2.9 -8.94482e-14 0)
(2.9 -8.05129e-14 0)
(2.9 -4.25128e-14 0)
(2.9 1.50299e-14 0)
(2.9 1.94126e-14 0)
(2.9 2.76998e-14 0)
(2.9 -3.88273e-16 0)
(2.9 3.15769e-15 0)
(2.9 3.46686e-14 0)
(2.9 -1.25025e-14 0)
(2.9 7.91398e-15 0)
(2.9 -1.61548e-14 0)
(2.9 -4.93567e-15 0)
(2.9 5.5174e-14 0)
(2.9 1.22114e-14 0)
(2.9 -1.16168e-14 0)
(2.9 1.85544e-14 0)
(2.9 -5.42997e-15 0)
(2.9 -2.32962e-14 0)
(2.9 2.25086e-14 0)
(2.9 6.45268e-14 0)
(2.9 -3.85776e-16 0)
(2.9 9.06386e-14 0)
(2.9 6.8139e-14 0)
(2.9 3.89983e-14 0)
(2.9 -1.81998e-14 0)
(2.9 8.72267e-15 0)
(2.9 -4.17357e-15 0)
(2.9 -6.0323e-14 0)
(2.9 -6.60931e-14 0)
(2.9 -4.07822e-14 0)
(2.9 3.34042e-14 0)
(2.9 3.25405e-14 0)
(2.9 1.20474e-14 0)
(2.9 4.0196e-14 0)
(2.9 4.27995e-14 0)
(2.9 -8.90092e-15 0)
(2.9 5.69718e-14 0)
(2.9 3.62704e-14 0)
(2.9 3.86757e-14 0)
(2.9 -3.52484e-14 0)
(2.9 1.37384e-14 0)
(2.9 2.53442e-14 0)
(2.9 -2.44778e-14 0)
(2.9 -2.91184e-14 0)
(2.9 3.25353e-14 0)
(2.9 1.80838e-14 0)
(2.9 9.81399e-15 0)
(2.9 -7.94298e-14 0)
(2.9 -3.78979e-14 0)
(2.9 -3.80593e-14 0)
(2.9 4.2974e-14 0)
(2.9 8.62644e-14 0)
(2.9 2.95506e-14 0)
(2.9 -2.91243e-14 0)
(2.9 -2.89316e-15 0)
(2.9 3.10675e-14 0)
(2.9 -3.65328e-14 0)
(2.9 -8.00046e-15 0)
(2.9 1.54547e-14 0)
(2.9 -9.65906e-14 0)
(2.9 -5.62937e-14 0)
(2.9 2.59424e-15 0)
(2.9 8.72464e-14 0)
(2.9 2.36706e-14 0)
(2.9 -1.22417e-14 0)
(2.9 -6.92598e-15 0)
(2.9 -1.85758e-14 0)
(2.9 8.95906e-15 0)
(2.9 2.02722e-14 0)
(2.9 1.47516e-14 0)
(2.9 4.16932e-14 0)
(2.9 1.51004e-14 0)
(2.9 2.4639e-14 0)
(2.9 1.0374e-13 0)
(2.9 5.45786e-14 0)
(2.9 1.02909e-13 0)
(2.9 2.34913e-14 0)
(2.9 -2.55279e-14 0)
(2.9 6.28507e-14 0)
(2.9 -8.62692e-15 0)
(2.9 4.0199e-14 0)
(2.9 -2.86719e-14 0)
(2.9 8.42358e-15 0)
(2.9 -7.87112e-15 0)
(2.9 8.54476e-15 0)
(2.9 -3.42372e-14 0)
(2.9 -3.25694e-14 0)
(2.9 -1.63342e-14 0)
(2.9 -2.94883e-14 0)
(2.9 -4.6774e-15 0)
(2.9 -1.5301e-14 0)
(2.9 3.04587e-14 0)
(2.9 6.81654e-14 0)
(2.9 6.63484e-14 0)
(2.9 2.9747e-14 0)
(2.9 2.64517e-14 0)
(2.9 -1.41945e-15 0)
(2.9 5.46158e-14 0)
(2.9 -4.97236e-14 0)
(2.9 -1.98771e-14 0)
(2.9 -2.80349e-14 0)
(2.9 1.91807e-14 0)
(2.9 -1.38123e-14 0)
(2.9 1.24232e-14 0)
(2.9 8.928e-15 0)
(2.9 7.41668e-15 0)
(2.9 -2.57486e-14 0)
(2.9 -1.77275e-14 0)
(2.9 -1.76421e-14 0)
(2.9 2.03923e-14 0)
(2.9 2.94228e-14 0)
(2.9 1.29029e-15 0)
(2.9 -4.92735e-15 0)
(2.9 3.02762e-14 0)
(2.9 -1.84713e-14 0)
(2.9 3.94847e-14 0)
(2.9 -3.28241e-14 0)
(2.9 -2.54281e-14 0)
(2.9 2.44494e-14 0)
(2.9 4.61119e-14 0)
(2.9 4.15793e-14 0)
(2.9 2.16814e-15 0)
(2.9 1.63617e-14 0)
(2.9 5.47161e-14 0)
(2.9 1.13796e-14 0)
(2.9 6.3506e-14 0)
(2.9 2.02133e-14 0)
(2.9 -1.20111e-16 0)
(2.9 1.83864e-14 0)
(2.9 2.22805e-14 0)
(2.9 6.57611e-14 0)
(2.9 1.72667e-14 0)
(2.9 2.06042e-14 0)
(2.9 5.94387e-14 0)
(2.9 3.63015e-16 0)
(2.9 3.67125e-14 0)
(2.9 3.38168e-15 0)
(2.9 -1.89798e-14 0)
(2.9 6.6498e-14 0)
(2.9 4.36434e-14 0)
(2.9 -1.83132e-14 0)
(2.9 8.16008e-15 0)
(2.9 -2.21898e-15 0)
(2.9 6.35158e-15 0)
(2.9 8.12269e-16 0)
(2.9 -6.00311e-14 0)
(2.9 -8.97789e-15 0)
(2.9 6.24526e-15 0)
(2.9 3.8919e-14 0)
(2.9 5.18261e-14 0)
(2.9 -6.1521e-14 0)
(2.9 -3.71665e-14 0)
(2.9 1.69935e-14 0)
(2.9 2.21482e-14 0)
(2.9 -1.24802e-14 0)
(2.9 -4.40045e-16 0)
(2.9 -1.88877e-14 0)
(2.9 1.32502e-14 0)
(2.9 8.37866e-15 0)
(2.9 -9.46775e-16 0)
(2.9 -7.78531e-14 0)
(2.9 3.42808e-15 0)
(2.9 -2.08075e-14 0)
(2.9 -6.46625e-17 0)
(2.9 5.25117e-15 0)
(2.9 -7.42909e-15 0)
(2.9 -1.88833e-14 0)
(2.9 2.90052e-14 0)
(2.9 1.40288e-15 0)
(2.9 2.34457e-14 0)
(2.9 -2.22934e-14 0)
(2.9 -2.82293e-14 0)
(2.9 -1.43972e-14 0)
(2.9 3.56718e-14 0)
(2.9 -3.33284e-14 0)
(2.9 -1.32358e-16 0)
(2.9 -1.36508e-14 0)
(2.9 -2.0318e-14 0)
(2.9 1.23631e-15 0)
(2.9 7.25579e-14 0)
(2.9 9.11956e-15 0)
(2.9 2.27024e-14 0)
(2.9 1.82559e-14 0)
(2.9 7.38851e-15 0)
(2.9 -1.56299e-14 0)
(2.9 -1.44381e-14 0)
(2.9 -2.17565e-15 0)
(2.9 -8.85326e-15 0)
(2.9 -1.60626e-14 0)
(2.9 6.98749e-15 0)
(2.9 -4.07055e-15 0)
(2.9 -8.48005e-16 0)
(2.9 -1.8648e-14 0)
(2.9 -2.4318e-14 0)
(2.9 -2.21074e-14 0)
(2.9 -4.27895e-14 0)
(2.9 -3.30237e-14 0)
(2.9 -1.68025e-14 0)
(2.9 3.14593e-14 0)
(2.9 4.9475e-14 0)
(2.9 -4.08729e-14 0)
(2.9 -9.83542e-16 0)
(2.9 -7.2242e-15 0)
(2.9 -8.50384e-14 0)
(2.9 -2.66371e-15 0)
(2.9 -2.39302e-14 0)
(2.9 1.43597e-14 0)
(2.9 4.34762e-14 0)
(2.9 2.71589e-14 0)
(2.9 3.80475e-14 0)
(2.9 -5.30196e-14 0)
(2.9 -6.61806e-14 0)
(2.9 -4.58393e-14 0)
(2.9 3.68098e-15 0)
(2.9 -5.2099e-14 0)
(2.9 -3.80733e-14 0)
(2.9 -2.46799e-14 0)
(2.9 4.21632e-14 0)
(2.9 6.51833e-14 0)
(2.9 3.97648e-14 0)
(2.9 1.18187e-14 0)
(2.9 -9.8989e-15 0)
(2.9 1.02917e-15 0)
(2.9 1.34348e-14 0)
(2.9 7.14853e-14 0)
(2.9 1.93348e-14 0)
(2.9 -3.28872e-14 0)
(2.9 5.55608e-14 0)
(2.9 1.81907e-14 0)
(2.9 5.84847e-14 0)
(2.9 -2.13526e-14 0)
(2.9 -2.88625e-14 0)
(2.9 -1.48177e-14 0)
(2.9 -5.62404e-14 0)
(2.9 -3.10599e-14 0)
(2.9 -6.59363e-14 0)
(2.9 -8.40775e-14 0)
(2.9 -8.8577e-15 0)
(2.9 -1.33404e-14 0)
(2.9 8.45119e-14 0)
(2.9 8.82195e-14 0)
(2.9 1.04748e-13 0)
(2.9 3.39118e-14 0)
(2.9 5.179e-16 0)
(2.9 -3.67902e-14 0)
(2.9 -9.61879e-15 0)
(2.9 -3.38821e-14 0)
(2.9 -8.05783e-15 0)
(2.9 4.86047e-14 0)
(2.9 1.29745e-14 0)
(2.9 -2.09804e-14 0)
(2.9 1.48902e-14 0)
(2.9 -5.3864e-14 0)
(2.9 -6.60431e-14 0)
(2.9 -3.77586e-17 0)
(2.9 -3.11251e-14 0)
(2.9 -1.42738e-14 0)
(2.9 -1.21959e-14 0)
(2.9 -2.71486e-14 0)
(2.9 -2.11472e-14 0)
(2.9 2.90314e-14 0)
(2.9 -1.64897e-14 0)
(2.9 2.02418e-14 0)
(2.9 -1.44815e-15 0)
(2.9 1.92152e-15 0)
(2.9 2.07368e-14 0)
(2.9 1.22328e-14 0)
(2.9 3.86135e-14 0)
(2.9 -3.22066e-14 0)
(2.9 -3.40887e-14 0)
(2.9 -3.05898e-14 0)
(2.9 1.36143e-14 0)
(2.9 -6.18957e-14 0)
(2.9 1.23773e-14 0)
(2.9 -3.58952e-14 0)
(2.9 5.56122e-14 0)
(2.9 -3.80947e-14 0)
(2.9 2.88238e-15 0)
(2.9 6.01391e-14 0)
(2.9 3.25386e-14 0)
(2.9 3.46463e-14 0)
(2.9 -2.22984e-14 0)
(2.9 -3.72727e-14 0)
(2.9 1.06984e-14 0)
(2.9 1.41103e-14 0)
(2.9 2.2233e-15 0)
(2.9 3.69846e-16 0)
(2.9 -6.40308e-16 0)
(2.9 2.4933e-14 0)
(2.9 3.62323e-14 0)
(2.9 2.85635e-14 0)
(2.9 -1.76096e-14 0)
(2.9 -7.27148e-15 0)
(2.9 -3.36684e-14 0)
(2.9 -1.04444e-14 0)
(2.9 -2.55141e-14 0)
(2.9 -1.66677e-14 0)
(2.9 -1.85244e-14 0)
(2.9 9.29944e-15 0)
(2.9 7.24918e-14 0)
(2.9 8.04347e-14 0)
(2.9 9.71788e-14 0)
(2.9 5.69311e-14 0)
(2.9 -1.11614e-14 0)
(2.9 -4.12425e-14 0)
(2.9 -1.63549e-14 0)
(2.9 -2.10145e-14 0)
(2.9 -3.58499e-14 0)
(2.9 1.53183e-14 0)
(2.9 2.60434e-14 0)
(2.9 6.25493e-14 0)
(2.9 4.89013e-14 0)
(2.9 -3.70702e-14 0)
(2.9 -5.10084e-14 0)
(2.9 -2.12462e-14 0)
(2.9 5.81039e-15 0)
(2.9 -1.4967e-14 0)
(2.9 2.25903e-14 0)
(2.9 -5.906e-14 0)
(2.9 -3.25829e-14 0)
(2.9 7.87719e-14 0)
(2.9 4.13967e-14 0)
(2.9 2.71336e-14 0)
(2.9 6.44534e-14 0)
(2.9 1.53767e-14 0)
(2.9 2.47439e-14 0)
(2.9 2.91526e-16 0)
(2.9 7.94297e-14 0)
(2.9 1.07451e-14 0)
(2.9 -7.27581e-15 0)
(2.9 -2.24317e-14 0)
(2.9 2.57604e-14 0)
(2.9 -2.45649e-14 0)
(2.9 -3.41271e-14 0)
(2.9 -4.21988e-14 0)
(2.9 3.9794e-14 0)
(2.9 -7.36873e-14 0)
(2.9 -7.61423e-14 0)
(2.9 -2.94242e-14 0)
(2.9 -1.39736e-14 0)
(2.9 2.15e-14 0)
(2.9 1.27796e-14 0)
(2.9 -6.28883e-14 0)
(2.9 -6.39566e-15 0)
(2.9 -7.47446e-14 0)
(2.9 -4.09807e-14 0)
(2.9 -4.43437e-15 0)
(2.9 -4.78322e-14 0)
(2.9 -2.04504e-14 0)
(2.9 -2.88889e-14 0)
(2.9 -2.49682e-14 0)
(2.9 -6.2857e-14 0)
(2.9 -3.77171e-14 0)
(2.9 -1.41708e-14 0)
(2.9 -3.10643e-14 0)
(2.9 -1.74315e-15 0)
(2.9 8.60625e-14 0)
(2.9 -3.07733e-14 0)
(2.9 9.32371e-15 0)
(2.9 6.35449e-14 0)
(2.9 7.8215e-14 0)
(2.9 7.27362e-14 0)
(2.9 6.245e-14 0)
(2.9 -2.21839e-14 0)
(2.9 -6.28914e-14 0)
(2.9 -2.0902e-14 0)
(2.9 -1.28356e-14 0)
(2.9 -6.54874e-14 0)
(2.9 -5.38972e-14 0)
(2.9 -2.77816e-14 0)
(2.9 2.48659e-14 0)
(2.9 4.1865e-14 0)
(2.9 -2.98381e-14 0)
(2.9 -3.79212e-14 0)
(2.9 -1.75819e-14 0)
(2.9 4.63564e-15 0)
(2.9 -1.13887e-14 0)
(2.9 1.14859e-13 0)
(2.9 8.89614e-15 0)
(2.9 6.22778e-14 0)
(2.9 -9.97795e-15 0)
(2.9 -3.50824e-14 0)
(2.9 -9.68976e-15 0)
(2.9 2.8549e-14 0)
(2.9 -6.85722e-14 0)
(2.9 -3.64964e-14 0)
(2.9 1.59908e-15 0)
(2.9 1.20268e-14 0)
(2.9 8.37371e-14 0)
(2.9 3.73627e-14 0)
(2.9 -1.16e-14 0)
(2.9 -1.63405e-14 0)
(2.9 3.03029e-14 0)
(2.9 -2.97082e-14 0)
(2.9 -1.60596e-14 0)
(2.9 -3.31814e-14 0)
(2.9 -6.93333e-14 0)
(2.9 -9.94919e-14 0)
(2.9 -6.76117e-14 0)
(2.9 -2.4769e-15 0)
(2.9 1.49042e-14 0)
(2.9 5.36745e-14 0)
(2.9 3.40433e-14 0)
(2.9 -1.59604e-15 0)
(2.9 -9.53126e-14 0)
(2.9 -7.32067e-14 0)
(2.9 -1.09683e-14 0)
(2.9 1.57725e-14 0)
(2.9 6.68669e-15 0)
(2.9 -1.92806e-14 0)
(2.9 -1.75848e-14 0)
(2.9 -5.08945e-15 0)
(2.9 -2.66768e-14 0)
(2.9 -1.51055e-15 0)
(2.9 -5.03597e-14 0)
(2.9 -2.50052e-14 0)
(2.9 8.65505e-14 0)
(2.9 -1.60878e-14 0)
(2.9 2.21871e-14 0)
(2.9 -1.23005e-15 0)
(2.9 1.87242e-14 0)
(2.9 9.58015e-15 0)
(2.9 2.18971e-14 0)
(2.9 -1.5989e-14 0)
(2.9 -4.38533e-14 0)
(2.9 -1.12335e-14 0)
(2.9 -1.39694e-14 0)
(2.9 -5.37302e-15 0)
(2.9 1.45431e-14 0)
(2.9 -1.56946e-14 0)
(2.9 -8.72039e-15 0)
(2.9 -5.33378e-14 0)
(2.9 -6.0953e-14 0)
(2.9 1.98383e-14 0)
(2.9 4.77645e-14 0)
(2.9 1.1852e-14 0)
(2.9 -1.71239e-15 0)
(2.9 3.12997e-14 0)
(2.9 -2.64293e-14 0)
(2.9 3.01252e-14 0)
(2.9 6.00587e-15 0)
(2.9 -2.33818e-14 0)
(2.9 -5.49217e-15 0)
(2.9 -9.55605e-16 0)
(2.9 -6.16034e-14 0)
(2.9 -3.82393e-14 0)
(2.9 2.53308e-14 0)
(2.9 -1.86027e-14 0)
(2.9 2.42881e-14 0)
(2.9 1.04669e-14 0)
(2.9 2.75577e-14 0)
(2.9 -1.70412e-14 0)
(2.9 2.31377e-14 0)
(2.9 2.12625e-14 0)
(2.9 1.96496e-14 0)
(2.9 -1.03102e-14 0)
(2.9 -2.05411e-14 0)
(2.9 -4.83068e-14 0)
(2.9 -1.52309e-14 0)
(2.9 7.33281e-15 0)
(2.9 9.9106e-15 0)
(2.9 2.25533e-14 0)
(2.9 1.73102e-14 0)
(2.9 1.21995e-15 0)
(2.9 -5.86096e-14 0)
(2.9 -4.06544e-15 0)
(2.9 -3.12083e-14 0)
(2.9 2.02583e-14 0)
(2.9 4.04621e-15 0)
(2.9 2.22781e-15 0)
(2.9 7.52761e-15 0)
(2.9 -1.30458e-14 0)
(2.9 -3.8545e-15 0)
(2.9 -5.20253e-15 0)
(2.9 -6.07161e-14 0)
(2.9 4.62772e-14 0)
(2.9 4.13492e-14 0)
(2.9 9.10564e-15 0)
(2.9 -1.57491e-14 0)
(2.9 -3.89712e-14 0)
(2.9 -3.96896e-14 0)
(2.9 -6.20143e-14 0)
(2.9 -3.09152e-14 0)
(2.9 -3.32593e-14 0)
(2.9 6.33888e-15 0)
(2.9 -2.66383e-15 0)
(2.9 -1.6127e-14 0)
(2.9 7.55196e-15 0)
(2.9 -1.26466e-14 0)
(2.9 2.22168e-14 0)
(2.9 2.96996e-15 0)
(2.9 -2.25542e-14 0)
(2.9 -6.55339e-15 0)
(2.9 5.65167e-14 0)
(2.9 7.8108e-14 0)
(2.9 2.76404e-14 0)
(2.9 2.31671e-15 0)
(2.9 -1.10805e-14 0)
(2.9 1.85025e-14 0)
(2.9 4.64194e-15 0)
(2.9 2.27403e-14 0)
(2.9 1.63781e-14 0)
(2.9 -1.75782e-14 0)
(2.9 -3.04037e-14 0)
(2.9 -1.72946e-14 0)
(2.9 -2.2733e-14 0)
(2.9 1.253e-14 0)
(2.9 -1.59278e-15 0)
(2.9 -2.16999e-15 0)
(2.9 -5.44829e-15 0)
(2.9 -5.44624e-14 0)
(2.9 -3.00009e-14 0)
(2.9 5.32669e-15 0)
(2.9 1.52272e-14 0)
(2.9 1.46731e-14 0)
(2.9 -3.40599e-14 0)
(2.9 1.81733e-14 0)
(2.9 6.42091e-14 0)
(2.9 -2.00389e-14 0)
(2.9 -3.33191e-14 0)
(2.9 -6.4316e-15 0)
(2.9 1.00837e-14 0)
(2.9 2.82672e-14 0)
(2.9 4.9691e-15 0)
(2.9 -7.64695e-15 0)
(2.9 -6.76782e-15 0)
(2.9 1.80571e-14 0)
(2.9 -1.91837e-14 0)
(2.9 1.6051e-14 0)
(2.9 -1.60048e-14 0)
(2.9 -2.14127e-14 0)
(2.9 -3.99814e-14 0)
(2.9 -2.40972e-14 0)
(2.9 -7.18198e-15 0)
(2.9 2.52109e-14 0)
(2.9 6.92055e-14 0)
(2.9 3.37917e-15 0)
(2.9 -1.00178e-14 0)
(2.9 -3.04149e-14 0)
(2.9 -5.55375e-14 0)
(2.9 -5.14368e-15 0)
(2.9 -7.95163e-14 0)
(2.9 -6.90321e-14 0)
(2.9 3.04216e-14 0)
(2.9 -1.42611e-16 0)
(2.9 6.07925e-15 0)
(2.9 8.16801e-15 0)
(2.9 -4.82583e-14 0)
(2.9 -5.72072e-14 0)
(2.9 8.96887e-15 0)
(2.9 -1.56818e-14 0)
(2.9 -2.20674e-14 0)
(2.9 3.84411e-14 0)
(2.9 1.10422e-14 0)
(2.9 1.99505e-14 0)
(2.9 4.10997e-14 0)
(2.9 1.88431e-14 0)
(2.9 -3.66983e-14 0)
(2.9 3.22783e-14 0)
(2.9 1.83523e-14 0)
(2.9 -1.17634e-14 0)
(2.9 2.36395e-14 0)
(2.9 4.87552e-14 0)
(2.9 4.59922e-14 0)
(2.9 1.47318e-14 0)
(2.9 5.61674e-14 0)
(2.9 -1.52147e-14 0)
(2.9 1.30923e-14 0)
(2.9 -1.18412e-14 0)
(2.9 -1.15512e-14 0)
(2.9 -5.19365e-14 0)
(2.9 6.05459e-14 0)
(2.9 1.46932e-14 0)
(2.9 3.71497e-14 0)
(2.9 -1.7227e-14 0)
(2.9 -1.39121e-14 0)
(2.9 3.26574e-14 0)
(2.9 -2.33116e-15 0)
(2.9 -7.48139e-14 0)
(2.9 -2.98825e-14 0)
(2.9 -4.18062e-14 0)
(2.9 -2.40724e-15 0)
(2.9 9.2774e-15 0)
(2.9 3.47753e-15 0)
(2.9 1.53298e-14 0)
(2.9 2.50554e-14 0)
(2.9 9.20646e-14 0)
(2.9 2.1753e-14 0)
(2.9 -1.46963e-14 0)
(2.9 -3.52896e-14 0)
(2.9 -8.11601e-14 0)
(2.9 -5.44589e-14 0)
(2.9 -9.73315e-15 0)
(2.9 -2.47366e-14 0)
(2.9 8.48923e-14 0)
(2.9 4.33651e-14 0)
(2.9 -4.77274e-14 0)
(2.9 1.14442e-14 0)
(2.9 -5.80748e-14 0)
(2.9 -6.98544e-14 0)
(2.9 3.6929e-14 0)
(2.9 -5.75691e-14 0)
(2.9 -4.63569e-14 0)
(2.9 -3.52134e-14 0)
(2.9 1.02309e-13 0)
(2.9 2.53643e-14 0)
(2.9 5.43381e-14 0)
(2.9 -8.46134e-14 0)
(2.9 -5.48737e-14 0)
(2.9 -8.13506e-15 0)
(2.9 -3.73659e-14 0)
(2.9 -1.93237e-14 0)
(2.9 3.14107e-14 0)
(2.9 -3.50084e-14 0)
(2.9 -1.20169e-14 0)
(2.9 7.60331e-14 0)
(2.9 6.3611e-14 0)
(2.9 7.95757e-15 0)
(2.9 -2.29074e-14 0)
(2.9 -1.57998e-14 0)
(2.9 -1.15396e-14 0)
(2.9 -3.78063e-14 0)
(2.9 3.1856e-14 0)
(2.9 2.32594e-14 0)
(2.9 5.76454e-14 0)
(2.9 5.80005e-14 0)
(2.9 -7.8442e-14 0)
(2.9 -2.23166e-14 0)
(2.9 -4.046e-14 0)
(2.9 -1.80714e-14 0)
(2.9 5.83169e-14 0)
(2.9 3.73391e-14 0)
(2.9 -1.86591e-14 0)
(2.9 5.01067e-14 0)
(2.9 -1.78787e-14 0)
(2.9 -2.1372e-14 0)
(2.9 4.84108e-15 0)
(2.9 -4.2851e-14 0)
(2.9 -3.34165e-14 0)
(2.9 -3.57424e-14 0)
(2.9 -3.69064e-15 0)
(2.9 2.2804e-14 0)
(2.9 3.09094e-15 0)
(2.9 -1.26797e-14 0)
(2.9 4.73591e-14 0)
(2.9 5.1547e-14 0)
(2.9 2.3662e-14 0)
(2.9 -1.20311e-15 0)
(2.9 1.77109e-14 0)
(2.9 -3.348e-14 0)
(2.9 -7.6322e-14 0)
(2.9 -1.38736e-14 0)
(2.9 -1.74701e-15 0)
(2.9 -3.67895e-14 0)
(2.9 3.55209e-14 0)
(2.9 3.18533e-14 0)
(2.9 -5.44733e-14 0)
(2.9 3.04214e-15 0)
(2.9 -1.93142e-14 0)
(2.9 -3.18514e-14 0)
(2.9 -9.02619e-15 0)
(2.9 2.68366e-14 0)
(2.9 -2.1241e-14 0)
(2.9 4.96567e-14 0)
(2.9 6.02253e-14 0)
(2.9 -5.46622e-15 0)
(2.9 3.37009e-14 0)
(2.9 -1.42407e-14 0)
(2.9 -3.64095e-14 0)
(2.9 -1.31741e-14 0)
(2.9 3.15441e-14 0)
(2.9 1.78693e-14 0)
(2.9 5.16329e-14 0)
(2.9 2.12362e-14 0)
(2.9 2.89058e-15 0)
(2.9 3.33294e-14 0)
(2.9 2.26633e-14 0)
(2.9 -1.11433e-14 0)
(2.9 2.74064e-14 0)
(2.9 2.41529e-14 0)
(2.9 3.79453e-14 0)
(2.9 1.07208e-14 0)
(2.9 1.04336e-14 0)
(2.9 8.20125e-15 0)
(2.9 7.26984e-14 0)
(2.9 1.4699e-15 0)
(2.9 -1.51342e-14 0)
(2.9 9.3783e-15 0)
(2.9 -1.86585e-14 0)
(2.9 -4.97254e-14 0)
(2.9 6.55468e-14 0)
(2.9 1.12171e-15 0)
(2.9 -1.61312e-14 0)
(2.9 1.70189e-14 0)
(2.9 2.04331e-14 0)
(2.9 -4.77672e-14 0)
(2.9 -2.63359e-14 0)
(2.9 -1.02739e-13 0)
(2.9 3.90553e-14 0)
(2.9 3.36703e-14 0)
(2.9 3.02202e-14 0)
(2.9 3.37895e-15 0)
(2.9 -1.05958e-14 0)
(2.9 4.95403e-15 0)
(2.9 8.41592e-14 0)
(2.9 3.44465e-14 0)
(2.9 1.50161e-14 0)
(2.9 -7.00085e-14 0)
(2.9 -4.78606e-14 0)
(2.9 -7.28784e-14 0)
(2.9 -4.21049e-14 0)
(2.9 -3.6877e-14 0)
(2.9 -1.36355e-14 0)
(2.9 -4.18888e-14 0)
(2.9 5.09008e-15 0)
(2.9 -1.17027e-14 0)
(2.9 -6.28337e-14 0)
(2.9 -4.08703e-14 0)
(2.9 1.06976e-15 0)
(2.9 -1.98419e-14 0)
(2.9 -3.24769e-14 0)
(2.9 4.2093e-14 0)
(2.9 -2.92798e-14 0)
(2.9 7.58278e-15 0)
(2.9 3.80441e-14 0)
(2.9 -4.39066e-14 0)
(2.9 -2.83867e-14 0)
(2.9 -4.96372e-16 0)
(2.9 -7.18424e-14 0)
(2.9 -2.73884e-14 0)
(2.9 1.56174e-14 0)
(2.9 9.21764e-15 0)
(2.9 3.2827e-14 0)
(2.9 1.76595e-14 0)
(2.9 5.57648e-14 0)
(2.9 1.30631e-14 0)
(2.9 -5.57715e-14 0)
(2.9 1.43397e-14 0)
(2.9 5.16372e-14 0)
(2.9 6.08965e-14 0)
(2.9 2.5593e-14 0)
(2.9 1.64323e-14 0)
(2.9 -3.33417e-14 0)
(2.9 -2.31881e-14 0)
(2.9 3.68701e-14 0)
(2.9 -6.32993e-16 0)
(2.9 3.82013e-14 0)
(2.9 -9.95044e-15 0)
(2.9 1.88943e-14 0)
(2.9 2.19777e-15 0)
(2.9 1.0173e-13 0)
(2.9 6.93722e-15 0)
(2.9 -1.29166e-14 0)
(2.9 5.56566e-15 0)
(2.9 1.88422e-14 0)
(2.9 1.49458e-14 0)
(2.9 4.36487e-14 0)
(2.9 8.62655e-15 0)
(2.9 -6.70884e-15 0)
(2.9 4.55097e-14 0)
(2.9 2.93635e-14 0)
(2.9 -1.91948e-14 0)
(2.9 -7.18422e-14 0)
(2.9 2.18525e-14 0)
(2.9 5.66582e-14 0)
(2.9 1.70502e-14 0)
(2.9 4.82896e-14 0)
(2.9 -9.85496e-15 0)
(2.9 -5.64812e-14 0)
(2.9 5.26811e-14 0)
(2.9 1.78475e-14 0)
(2.9 7.21236e-16 0)
(2.9 -5.84654e-15 0)
(2.9 6.5006e-14 0)
(2.9 1.34287e-14 0)
(2.9 -1.73414e-14 0)
(2.9 -3.94278e-14 0)
(2.9 -7.35547e-14 0)
(2.9 3.77197e-14 0)
(2.9 -3.63382e-15 0)
(2.9 -6.95397e-14 0)
(2.9 -3.39057e-14 0)
(2.9 -1.17622e-14 0)
(2.9 -1.58403e-14 0)
(2.9 7.99287e-15 0)
(2.9 -6.03386e-15 0)
(2.9 -2.2068e-14 0)
(2.9 2.31572e-14 0)
(2.9 -6.22229e-14 0)
(2.9 -4.91351e-14 0)
(2.9 -4.89092e-14 0)
(2.9 -6.70221e-14 0)
(2.9 4.99022e-15 0)
(2.9 2.3681e-14 0)
(2.9 3.73538e-14 0)
(2.9 -1.83294e-14 0)
(2.9 -1.55761e-14 0)
(2.9 -4.04202e-14 0)
(2.9 -2.47856e-14 0)
(2.9 -5.17426e-15 0)
(2.9 2.60943e-14 0)
(2.9 1.39227e-14 0)
(2.9 2.41386e-14 0)
(2.9 5.94798e-14 0)
(2.9 -2.97518e-14 0)
(2.9 5.01202e-15 0)
(2.9 4.82538e-14 0)
(2.9 -1.25077e-15 0)
(2.9 6.31793e-14 0)
(2.9 4.99686e-14 0)
(2.9 3.79151e-14 0)
(2.9 5.11305e-15 0)
(2.9 1.47923e-14 0)
(2.9 -3.16579e-14 0)
(2.9 8.1182e-15 0)
(2.9 1.05765e-14 0)
(2.9 1.81585e-14 0)
(2.9 6.19359e-14 0)
(2.9 -3.58235e-14 0)
(2.9 9.8933e-15 0)
(2.9 -3.89878e-15 0)
(2.9 -4.87221e-14 0)
(2.9 -5.07025e-14 0)
(2.9 -1.15875e-14 0)
(2.9 3.83487e-14 0)
(2.9 8.53994e-15 0)
(2.9 5.31245e-15 0)
(2.9 3.90379e-14 0)
(2.9 1.62653e-14 0)
(2.9 5.03903e-14 0)
(2.9 8.67693e-14 0)
(2.9 5.80902e-14 0)
(2.9 1.38592e-14 0)
(2.9 1.9584e-14 0)
(2.9 5.67167e-15 0)
(2.9 -1.22588e-14 0)
(2.9 -8.85999e-15 0)
(2.9 -3.10819e-14 0)
(2.9 5.17384e-14 0)
(2.9 6.3005e-14 0)