/*--------------------------------*- C++ -*----------------------------------*\
| =========                 |                                                 |
| \\      /  F ield         | OpenFOAM: The Open Source CFD Toolbox           |
|  \\    /   O peration     | Version:  2412                                  |
|   \\  /    A nd           | Website:  www.openfoam.com                      |
|    \\/     M anipulation  |                                                 |
\*---------------------------------------------------------------------------*/
FoamFile
{
    version     2.0;
    format      ascii;
    arch        "LSB;label=32;scalar=64";
    class       volScalarField;
    location    "0.024402";
    object      rho;
}
// * * * * * * * * * * * * * * * * * * * * * * * * * * * * * * * * * * * * * //

dimensions      [1 -3 0 0 0 0 0];

internalField   nonuniform List<scalar> 
100
(
0.495255
0.495286
0.495392
0.49546
0.495509
0.495496
0.495368
0.49521
0.494937
0.494715
0.494356
0.494086
0.493744
0.493294
0.493077
0.492415
0.492276
0.491474
0.491066
0.490485
0.48982
0.489318
0.488554
0.488298
0.487525
0.487091
0.486002
0.48497
0.483403
0.481871
0.480182
0.47879
0.4778
0.477695
0.478169
0.478013
0.476289
0.474484
0.477865
0.495702
0.508653
0.504116
0.497656
0.492198
0.487328
0.478309
0.46589
0.461798
0.45967
0.457228
0.456686
0.459568
0.460893
0.460934
0.461846
0.462038
0.458707
0.457687
0.464087
0.467149
0.456173
0.447566
0.461232
0.482167
0.472118
0.435185
0.431289
0.482802
0.531095
0.769879
1.00344
1.02894
1.00554
1.04545
1.04438
1.03914
1.07023
1.07049
1.09185
1.09036
1.09133
1.0968
1.07464
1.05336
1.04069
1.03047
1.06121
1.1053
1.1317
1.08165
0.99532
0.91476
0.878972
0.872106
0.87554
0.889911
0.897579
0.891719
0.886848
0.879511
)
;

boundaryField
{
    sides
    {
        type            calculated;
        value           nonuniform List<scalar> 2(0.879511 0.495255);
    }
    empty
    {
        type            empty;
    }
}


// ************************************************************************* //
