/*--------------------------------*- C++ -*----------------------------------*\
| =========                 |                                                 |
| \\      /  F ield         | OpenFOAM: The Open Source CFD Toolbox           |
|  \\    /   O peration     | Version:  2412                                  |
|   \\  /    A nd           | Website:  www.openfoam.com                      |
|    \\/     M anipulation  |                                                 |
\*---------------------------------------------------------------------------*/
FoamFile
{
    version     2.0;
    format      ascii;
    arch        "LSB;label=32;scalar=64";
    class       volScalarField;
    location    "0.0227177";
    object      rhoY_Y_N2;
}
// * * * * * * * * * * * * * * * * * * * * * * * * * * * * * * * * * * * * * //

dimensions      [1 -3 0 0 0 0 0];

internalField   nonuniform List<scalar> 
100
(
0.550383
0.550407
0.550532
0.550571
0.550524
0.550323
0.549988
0.549644
0.549264
0.548951
0.548563
0.54822
0.54768
0.547101
0.546598
0.545961
0.545723
0.544711
0.544299
0.543012
0.541654
0.540176
0.538707
0.537805
0.536736
0.536978
0.537149
0.538316
0.538639
0.540936
0.549736
0.565206
0.567318
0.559757
0.551708
0.543146
0.532249
0.521819
0.514214
0.507377
0.500808
0.496749
0.492266
0.485799
0.480705
0.475906
0.469356
0.463639
0.461542
0.720373
0.515817
0.5105
0.503104
0.49741
0.494553
0.493997
0.490244
0.483063
0.483419
0.495091
0.495974
0.473565
0.46146
0.48481
0.515457
0.501129
0.448874
0.440891
0.500078
0.54213
0.50503
0.42808
0.55462
1.01038
1.07674
1.06615
1.06483
1.01215
1.01985
1.03114
1.04018
1.07503
1.08616
1.10674
1.11149
1.10772
1.11944
1.20939
1.00353
0.574391
0.224595
0.0661725
0.0158538
0.00309556
0.000471794
4.76213e-05
2.75903e-06
5.35711e-08
-1.59334e-09
-1.26532e-10
)
;

boundaryField
{
    sides
    {
        type            calculated;
        value           nonuniform List<scalar> 2(0 1.12308);
    }
    empty
    {
        type            empty;
    }
}


// ************************************************************************* //
