/*--------------------------------*- C++ -*----------------------------------*\
| =========                 |                                                 |
| \\      /  F ield         | OpenFOAM: The Open Source CFD Toolbox           |
|  \\    /   O peration     | Version:  2412                                  |
|   \\  /    A nd           | Website:  www.openfoam.com                      |
|    \\/     M anipulation  |                                                 |
\*---------------------------------------------------------------------------*/
FoamFile
{
    version     2.0;
    format      ascii;
    arch        "LSB;label=32;scalar=64";
    class       volScalarField;
    location    "0.0168233";
    object      p;
}
// * * * * * * * * * * * * * * * * * * * * * * * * * * * * * * * * * * * * * //

dimensions      [1 -1 -2 0 0 0 0];

internalField   nonuniform List<scalar> 
100
(
72109.5
73032.6
73965.3
75207.3
76118.8
76303.6
75700.3
74306
72650.7
71071.5
69631.8
68273.9
66943.7
65626.6
64322.1
63044.5
61774.2
60559
59299.8
58195
56878.4
55992.3
54491
53942.1
52162.3
51921.1
50006.4
49840.6
48063
47778.2
46232.1
45766.6
44476.7
43833.2
42729.3
41982.9
41026.5
40224.5
39340.2
38528.9
37720.9
36949
36165.9
35399.1
34698
34040.2
33322.3
32718.3
32265.9
31851.9
31634.4
31564.9
31600.1
31807.3
32108.7
32068
31352.5
31210.8
32058.1
32637.9
32161.1
30846.1
30860.8
32418.8
32957.9
32161.2
30622.5
30833.3
32387.3
33036.8
32481.5
30740
31000.4
31905.4
32935.7
32815.7
31614.1
30915.6
31325.7
32528.7
32908.3
32777.4
31542.3
30862.6
39464.8
86168
88898
85418.9
91265.3
94723.8
93587.9
94805
94073.2
96699.3
94086.3
95110.8
89907.4
90990.9
87782
88742
)
;

boundaryField
{
    sides
    {
        type            zeroGradient;
    }
    empty
    {
        type            empty;
    }
}


// ************************************************************************* //
