/*--------------------------------*- C++ -*----------------------------------*\
| =========                 |                                                 |
| \\      /  F ield         | OpenFOAM: The Open Source CFD Toolbox           |
|  \\    /   O peration     | Version:  2412                                  |
|   \\  /    A nd           | Website:  www.openfoam.com                      |
|    \\/     M anipulation  |                                                 |
\*---------------------------------------------------------------------------*/
FoamFile
{
    version     2.0;
    format      ascii;
    arch        "LSB;label=32;scalar=64";
    class       volScalarField;
    location    "0.0429456";
    object      rho;
}
// * * * * * * * * * * * * * * * * * * * * * * * * * * * * * * * * * * * * * //

dimensions      [1 -3 0 0 0 0 0];

internalField   nonuniform List<scalar> 
100
(
0.228079
0.228151
0.228261
0.22838
0.228473
0.228515
0.228503
0.228453
0.228389
0.228188
0.227668
0.228747
0.298868
0.528642
0.568813
0.544652
0.529445
0.533239
0.54184
0.567608
0.586756
0.593206
0.598768
0.602593
0.590227
0.565827
0.560916
0.564991
0.569986
0.585391
0.608069
0.617465
0.62298
0.627252
0.623924
0.619191
0.622395
0.628401
0.640375
0.649651
0.655263
0.653296
0.645321
0.646764
0.65318
0.667352
0.680862
0.688292
0.689612
0.68025
0.677941
0.683551
0.696146
0.721754
0.736184
0.74327
0.741519
0.722858
0.71164
0.713955
0.7212
0.735018
0.752907
0.76442
0.771982
0.778605
0.780644
0.783612
0.787777
0.792697
0.793008
0.791558
0.799414
0.805943
0.816927
0.824987
0.826671
0.824727
0.824476
0.834318
0.857715
0.897049
0.922945
0.9353
0.935286
0.893962
0.84155
0.803009
0.765576
0.731473
0.708856
0.698368
0.696258
0.700004
0.705875
0.708882
0.708918
0.706541
0.702762
0.700408
)
;

boundaryField
{
    sides
    {
        type            calculated;
        value           nonuniform List<scalar> 2(0.700408 0.228079);
    }
    empty
    {
        type            empty;
    }
}


// ************************************************************************* //
