/*--------------------------------*- C++ -*----------------------------------*\
| =========                 |                                                 |
| \\      /  F ield         | OpenFOAM: The Open Source CFD Toolbox           |
|  \\    /   O peration     | Version:  2412                                  |
|   \\  /    A nd           | Website:  www.openfoam.com                      |
|    \\/     M anipulation  |                                                 |
\*---------------------------------------------------------------------------*/
FoamFile
{
    version     2.0;
    format      ascii;
    arch        "LSB;label=32;scalar=64";
    class       surfaceScalarField;
    location    "0.000643707";
    object      phiRhoY_Y_O2;
}
// * * * * * * * * * * * * * * * * * * * * * * * * * * * * * * * * * * * * * //

dimensions      [1 0 -1 0 0 0 0];

internalField   nonuniform List<scalar> 
99
(
0
0
0
0
0
0
0
0
0
0
0
0
0
0
0
0
0
0
0
0
0
0
0
0
0
0
0
0
0
0
0
0
0
0
0
0
0
0
0
0
0
0
0
0
0
0
0
0
0
64.4939
240.403
353.175
137.437
1.40515
0.000312216
1.33837e-08
8.95284e-13
2.84217e-14
0
0
1.42109e-14
2.84217e-14
-1.42109e-14
0
-1.42109e-14
4.26326e-14
1.42109e-14
0
1.42109e-14
-2.84217e-14
-2.84217e-14
0
0
0
0
0
2.84217e-14
-2.84217e-14
0
0
2.84217e-14
4.26326e-14
-2.84217e-14
0
0
0
2.84217e-14
-2.84217e-14
0
0
0
-1.42109e-14
2.84217e-14
-1.42109e-14
0
0
0
2.84217e-14
-1.42109e-14
)
;

boundaryField
{
    sides
    {
        type            calculated;
        value           uniform 0;
    }
    empty
    {
        type            empty;
    }
}


// ************************************************************************* //
