/*--------------------------------*- C++ -*----------------------------------*\
| =========                 |                                                 |
| \\      /  F ield         | OpenFOAM: The Open Source CFD Toolbox           |
|  \\    /   O peration     | Version:  2412                                  |
|   \\  /    A nd           | Website:  www.openfoam.com                      |
|    \\/     M anipulation  |                                                 |
\*---------------------------------------------------------------------------*/
FoamFile
{
    version     2.0;
    format      ascii;
    arch        "LSB;label=32;scalar=64";
    class       volScalarField;
    location    "0.0387312";
    object      TTR;
}
// * * * * * * * * * * * * * * * * * * * * * * * * * * * * * * * * * * * * * //

dimensions      [0 0 0 1 0 0 0];

internalField   nonuniform List<scalar> 
100
(
200
200
200
200
200
200
200
200
200
200
200
200
200
200
200
200
200
200
200
200
200
200
200
200
200
200
200
200
200
226.075
258.504
267.515
268.431
269.191
270.235
270.848
270.04
269.762
270.82
271.879
273.853
275.53
276.424
276.912
276.984
275.404
273.694
273.916
274.557
276.068
277.612
278.586
279.212
279.354
279.6
278.618
279.396
280.011
281.946
281.56
283.269
280.781
282.389
281.898
282.976
285.871
282.131
290.381
279.76
290.392
281.967
289.547
291.528
286.981
297.017
284.139
295.199
286.246
293.715
292.734
294.339
296.62
295.112
296.176
292.594
292.157
292.06
295.327
305.263
332.612
363.09
393.577
404.382
414.783
415.105
418.544
418.641
426.691
426.752
432.705
)
;

boundaryField
{
    sides
    {
        type            zeroGradient;
    }
    empty
    {
        type            empty;
    }
}


// ************************************************************************* //
