/*--------------------------------*- C++ -*----------------------------------*\
| =========                 |                                                 |
| \\      /  F ield         | OpenFOAM: The Open Source CFD Toolbox           |
|  \\    /   O peration     | Version:  2412                                  |
|   \\  /    A nd           | Website:  www.openfoam.com                      |
|    \\/     M anipulation  |                                                 |
\*---------------------------------------------------------------------------*/
FoamFile
{
    version     2.0;
    format      ascii;
    arch        "LSB;label=32;scalar=64";
    class       volVectorField;
    location    "0.015733";
    object      U;
}
// * * * * * * * * * * * * * * * * * * * * * * * * * * * * * * * * * * * * * //

dimensions      [0 1 -1 0 0 0 0];

internalField   nonuniform List<vector> 
100
(
(8.17906 0 0)
(25.9572 0 0)
(36.2016 0 0)
(42.8859 0 0)
(48.1884 0 0)
(53.3135 0 0)
(58.521 0 0)
(63.7939 0 0)
(69.0937 0 0)
(74.4068 0 0)
(79.7297 0 0)
(85.0599 0 0)
(90.3961 0 0)
(95.7386 0 0)
(101.087 0 0)
(106.445 0 0)
(111.807 0 0)
(117.188 0 0)
(122.548 0 0)
(127.968 0 0)
(133.27 0 0)
(138.769 0 0)
(143.891 0 0)
(149.545 0 0)
(154.417 0 0)
(160.213 0 0)
(165.079 0 0)
(170.679 0 0)
(175.951 0 0)
(181.051 0 0)
(186.622 0 0)
(191.543 0 0)
(197.181 0 0)
(202.051 0 0)
(207.726 0 0)
(212.767 0 0)
(218.323 0 0)
(223.447 0 0)
(228.981 0 0)
(234.305 0 0)
(239.713 0 0)
(244.926 0 0)
(250.244 0 0)
(255.641 0 0)
(260.754 0 0)
(265.61 0 0)
(270.791 0 0)
(275.726 0 0)
(279.074 0 0)
(282.17 0 0)
(284.103 0 0)
(285.035 0 0)
(285.079 0 0)
(283.303 0 0)
(280.492 0 0)
(280.222 0 0)
(286.758 0 0)
(288.359 0 0)
(281.753 0 0)
(276.231 0 0)
(278.529 0 0)
(289.869 0 0)
(291.243 0 0)
(280.063 0 0)
(274.166 0 0)
(277.744 0 0)
(290.783 0 0)
(291.065 0 0)
(281.722 0 0)
(274.46 0 0)
(275.941 0 0)
(288.615 0 0)
(289.138 0 0)
(285.539 0 0)
(275.974 0 0)
(275.86 0 0)
(280.099 0 0)
(288.534 0 0)
(287.656 0 0)
(283.478 0 0)
(275.562 0 0)
(276.819 0 0)
(276.914 0 0)
(286.578 0 0)
(288.074 0 0)
(284.457 0 0)
(251.364 0 0)
(81.2379 0 0)
(10.3353 0 0)
(25.6401 0 0)
(20.4799 0 0)
(17.4729 0 0)
(12.9643 0 0)
(7.57104 0 0)
(4.33737 0 0)
(4.63048 0 0)
(2.05719 0 0)
(0.130896 0 0)
(0.635131 0 0)
(-3.54215 0 0)
)
;

boundaryField
{
    sides
    {
        type            fixedValue;
        value           uniform (0 0 0);
    }
    empty
    {
        type            empty;
    }
}


// ************************************************************************* //
