/*--------------------------------*- C++ -*----------------------------------*\
| =========                 |                                                 |
| \\      /  F ield         | OpenFOAM: The Open Source CFD Toolbox           |
|  \\    /   O peration     | Version:  2412                                  |
|   \\  /    A nd           | Website:  www.openfoam.com                      |
|    \\/     M anipulation  |                                                 |
\*---------------------------------------------------------------------------*/
FoamFile
{
    version     2.0;
    format      ascii;
    arch        "LSB;label=32;scalar=64";
    class       volScalarField;
    location    "0.0304547";
    object      TTR;
}
// * * * * * * * * * * * * * * * * * * * * * * * * * * * * * * * * * * * * * //

dimensions      [0 0 0 1 0 0 0];

internalField   nonuniform List<scalar> 
100
(
217.153
217.175
217.046
217.138
216.841
217.187
216.49
217.487
215.887
218.12
215.158
218.868
214.56
219.135
214.427
218.809
214.741
218.224
215.247
217.59
215.676
217.058
215.947
216.677
216.054
216.388
216.05
216.188
216.008
216.038
215.901
215.88
215.77
215.743
215.621
215.589
215.484
215.401
215.236
215.26
215.425
215.052
214.983
215.158
215.354
215.312
215.021
215.505
217.067
217.471
216.289
217.033
218.503
219.65
219.791
219.86
270.336
295.098
303.71
294.125
298.499
297.73
293.765
308.023
286.827
309.441
288.745
307.998
304.656
302.125
320.667
294.986
321.994
293.628
313.093
305.966
305.73
312.793
301.694
309.968
303.917
307.636
307.584
309.092
307.737
306.828
301.62
300.155
302.786
328.036
364.904
401.342
413.474
425.259
423.031
429.129
423.635
425.646
420.905
420.272
)
;

boundaryField
{
    sides
    {
        type            zeroGradient;
    }
    empty
    {
        type            empty;
    }
}


// ************************************************************************* //
