/*--------------------------------*- C++ -*----------------------------------*\
| =========                 |                                                 |
| \\      /  F ield         | OpenFOAM: The Open Source CFD Toolbox           |
|  \\    /   O peration     | Version:  2412                                  |
|   \\  /    A nd           | Website:  www.openfoam.com                      |
|    \\/     M anipulation  |                                                 |
\*---------------------------------------------------------------------------*/
FoamFile
{
    version     2.0;
    format      ascii;
    arch        "LSB;label=32;scalar=64";
    class       surfaceScalarField;
    location    "0.00423188";
    object      phiRhoY_Y_N2;
}
// * * * * * * * * * * * * * * * * * * * * * * * * * * * * * * * * * * * * * //

dimensions      [1 0 -1 0 0 0 0];

internalField   nonuniform List<scalar> 
99
(
-2.27374e-13
-5.68434e-13
-4.54747e-13
0
3.41061e-13
3.41061e-13
-4.54747e-13
-6.82121e-13
-7.95808e-13
-6.82121e-13
-1.13687e-13
-3.41061e-13
-3.41061e-13
-3.41061e-13
-3.41061e-13
-1.13687e-13
3.41061e-13
3.41061e-13
1.13687e-13
-2.27374e-13
5.68434e-13
7.95808e-13
1.13687e-12
7.95808e-13
5.68434e-13
1.02318e-12
6.82121e-13
3.41061e-13
5.68434e-13
5.79803e-12
3.08864e-09
1.55355e-06
0.000583186
0.115339
5.12487
42.7307
118.696
196.204
260
311.525
354.944
392.47
423.593
452.38
471.929
483.901
500.459
524.028
523.711
505.762
503.303
538.424
550.632
525.396
499.734
505.495
547.166
537.003
439.556
281.691
152.831
73.7594
30.8008
10.8453
3.44644
1.0412
0.288316
0.0786929
0.016996
0.00185392
5.72155e-06
9.06285e-13
1.26038e-25
1.69688e-44
5.56381e-68
0
0
0
0
0
0
0
0
0
0
0
0
0
0
0
0
0
0
0
0
0
0
0
0
)
;

boundaryField
{
    sides
    {
        type            calculated;
        value           uniform 0;
    }
    empty
    {
        type            empty;
    }
}


// ************************************************************************* //
