/*--------------------------------*- C++ -*----------------------------------*\
| =========                 |                                                 |
| \\      /  F ield         | OpenFOAM: The Open Source CFD Toolbox           |
|  \\    /   O peration     | Version:  2412                                  |
|   \\  /    A nd           | Website:  www.openfoam.com                      |
|    \\/     M anipulation  |                                                 |
\*---------------------------------------------------------------------------*/
FoamFile
{
    version     2.0;
    format      ascii;
    arch        "LSB;label=32;scalar=64";
    class       volVectorField;
    location    "0.000109508";
    object      U;
}
// * * * * * * * * * * * * * * * * * * * * * * * * * * * * * * * * * * * * * //

dimensions      [0 1 -1 0 0 0 0];

internalField   nonuniform List<vector> 
1800
(
(2.9 -6.45478e-14 0)
(2.9 6.65073e-15 0)
(2.9 5.18156e-14 0)
(2.9 -5.39117e-14 0)
(2.9 -2.64376e-14 0)
(2.9 -7.28538e-14 0)
(2.9 -7.58741e-14 0)
(2.9 -6.32883e-14 0)
(2.9 -4.6142e-14 0)
(2.9 -7.54132e-15 0)
(2.9 -7.19111e-15 0)
(2.9 -5.51309e-14 0)
(2.9 -1.02267e-13 0)
(2.9 -8.17531e-14 0)
(2.9 -7.54239e-14 0)
(2.9 -5.09914e-14 0)
(2.9 -6.04744e-15 0)
(2.9 -2.71963e-14 0)
(2.9 -3.19735e-14 0)
(2.9 -4.22792e-14 0)
(2.9 -2.71328e-14 0)
(2.9 -2.39012e-14 0)
(2.9 2.6112e-14 0)
(2.9 7.34672e-15 0)
(2.9 -2.01767e-14 0)
(2.9 -8.20012e-14 0)
(2.9 -5.21622e-14 0)
(2.9 -2.8745e-14 0)
(2.9 3.89105e-14 0)
(2.9 6.11819e-14 0)
(2.9 -3.57994e-14 0)
(2.9 4.64717e-15 0)
(2.9 -6.84157e-14 0)
(2.9 -5.44136e-14 0)
(2.9 -1.36583e-14 0)
(2.9 7.512e-16 0)
(2.9 -3.12529e-14 0)
(2.9 8.52728e-15 0)
(2.9 8.30279e-15 0)
(2.9 -1.93882e-14 0)
(2.9 1.71523e-15 0)
(2.9 3.07784e-14 0)
(2.9 4.37876e-15 0)
(2.9 3.57796e-15 0)
(2.9 -2.54522e-14 0)
(2.9 -4.90845e-14 0)
(2.9 4.14153e-15 0)
(2.9 7.82788e-14 0)
(2.9 4.91373e-14 0)
(2.9 6.43939e-14 0)
(2.9 2.93228e-14 0)
(2.9 -8.29234e-15 0)
(2.9 4.48817e-15 0)
(2.9 -1.34093e-14 0)
(2.9 3.95731e-14 0)
(2.9 3.1741e-14 0)
(2.9 -3.16104e-14 0)
(2.9 -2.78025e-14 0)
(2.9 -5.91636e-14 0)
(2.9 -9.43873e-14 0)
(2.9 -1.55959e-13 0)
(2.9 -4.15014e-14 0)
(2.9 3.35366e-14 0)
(2.9 -3.53963e-14 0)
(2.9 -5.45171e-14 0)
(2.9 -1.70989e-13 0)
(2.9 -1.65613e-13 0)
(2.9 -1.27076e-13 0)
(2.9 -6.60172e-14 0)
(2.9 -1.42687e-15 0)
(2.9 -6.16537e-15 0)
(2.9 -1.19681e-13 0)
(2.9 -2.18422e-13 0)
(2.9 -1.74911e-13 0)
(2.9 -4.0785e-14 0)
(2.9 -1.96963e-14 0)
(2.9 4.43309e-15 0)
(2.9 -9.08202e-14 0)
(2.9 -1.06862e-13 0)
(2.9 -9.2857e-14 0)
(2.9 -8.4044e-14 0)
(2.9 -7.39371e-15 0)
(2.9 1.20836e-13 0)
(2.9 4.26424e-14 0)
(2.9 -7.41376e-14 0)
(2.9 -1.85498e-13 0)
(2.9 -1.20466e-13 0)
(2.9 -9.15734e-14 0)
(2.9 8.28552e-15 0)
(2.9 6.93189e-15 0)
(2.9 -1.00194e-13 0)
(2.9 -2.99481e-14 0)
(2.9 -1.52809e-13 0)
(2.9 -1.26058e-13 0)
(2.9 -5.59067e-14 0)
(2.9 -3.92093e-14 0)
(2.9 -4.02314e-14 0)
(2.9 2.7613e-14 0)
(2.9 -1.78958e-14 0)
(2.9 -6.33388e-14 0)
(2.9 7.62873e-15 0)
(2.9 5.47334e-14 0)
(2.9 4.02648e-15 0)
(2.9 9.34177e-15 0)
(2.9 -8.19895e-14 0)
(2.9 -1.18213e-13 0)
(2.9 -6.96737e-15 0)
(2.9 5.41135e-14 0)
(2.9 1.16122e-13 0)
(2.9 1.2074e-13 0)
(2.9 3.91671e-14 0)
(2.9 -6.82603e-14 0)
(2.9 -5.22861e-14 0)
(2.9 -5.25936e-14 0)
(2.9 5.03165e-14 0)
(2.9 6.42246e-14 0)
(2.9 -5.18101e-14 0)
(2.9 -5.02714e-14 0)
(2.9 -1.58677e-13 0)
(2.9 -1.92545e-13 0)
(2.9 -8.39291e-14 0)
(2.9 -6.56212e-14 0)
(2.9 -1.21073e-14 0)
(2.9 -2.41293e-14 0)
(2.9 -3.38653e-14 0)
(2.9 -1.49372e-13 0)
(2.9 -1.87441e-13 0)
(2.9 -7.24097e-14 0)
(2.9 -2.82911e-15 0)
(2.9 -6.86179e-14 0)
(2.9 -1.22397e-13 0)
(2.9 -1.82701e-13 0)
(2.9 -1.78318e-13 0)
(2.9 -1.44491e-13 0)
(2.9 -9.58035e-14 0)
(2.9 4.39691e-14 0)
(2.9 1.85983e-15 0)
(2.9 -6.82721e-14 0)
(2.9 -3.81881e-14 0)
(2.9 -4.86265e-14 0)
(2.9 4.70181e-15 0)
(2.9 3.76056e-14 0)
(2.9 1.5281e-13 0)
(2.9 5.4266e-14 0)
(2.9 -8.88912e-14 0)
(2.9 -1.91956e-13 0)
(2.9 -7.94819e-14 0)
(2.9 -6.04514e-14 0)
(2.9 -2.31141e-14 0)
(2.9 -9.38392e-14 0)
(2.9 -7.70951e-14 0)
(2.9 -1.02781e-13 0)
(2.9 -1.52321e-13 0)
(2.9 -1.58985e-13 0)
(2.9 -7.65079e-14 0)
(2.9 -5.52196e-14 0)
(2.9 -7.35663e-15 0)
(2.9 6.79144e-15 0)
(2.9 -1.14514e-13 0)
(2.9 -1.48067e-13 0)
(2.9 -5.2086e-14 0)
(2.9 -1.35825e-14 0)
(2.9 2.4363e-14 0)
(2.9 -1.60165e-14 0)
(2.9 -6.73251e-14 0)
(2.9 -7.20169e-14 0)
(2.9 -4.73897e-14 0)
(2.9 8.74877e-16 0)
(2.9 4.74505e-14 0)
(2.9 -7.40904e-15 0)
(2.9 -2.73939e-14 0)
(2.9 -5.30399e-14 0)
(2.9 -9.63842e-14 0)
(2.9 -1.10157e-13 0)
(2.9 7.4665e-15 0)
(2.9 -4.73138e-14 0)
(2.9 -5.62779e-14 0)
(2.9 -5.08148e-14 0)
(2.9 -1.28864e-13 0)
(2.9 -1.46621e-13 0)
(2.9 -1.11714e-14 0)
(2.9 -1.0542e-13 0)
(2.9 -4.22963e-14 0)
(2.9 -8.82547e-14 0)
(2.9 -2.63474e-14 0)
(2.9 -1.04499e-13 0)
(2.9 -1.48066e-13 0)
(2.9 -8.63987e-14 0)
(2.9 -3.29046e-14 0)
(2.9 -1.42333e-13 0)
(2.9 -1.57686e-13 0)
(2.9 -1.95439e-13 0)
(2.9 -1.17351e-13 0)
(2.9 -1.30836e-13 0)
(2.9 -1.63148e-13 0)
(2.9 -6.37675e-14 0)
(2.9 -7.68826e-14 0)
(2.9 -4.39483e-14 0)
(2.9 1.63883e-14 0)
(2.9 1.15207e-15 0)
(2.9 6.77444e-14 0)
(2.9 9.01655e-14 0)
(2.9 2.01175e-14 0)
(2.9 8.49734e-15 0)
(2.9 -5.49485e-14 0)
(2.9 -1.36672e-13 0)
(2.9 -6.40512e-14 0)
(2.9 -3.33257e-14 0)
(2.9 -3.70019e-15 0)
(2.9 -2.99752e-14 0)
(2.9 -3.35062e-14 0)
(2.9 -5.56476e-14 0)
(2.9 -1.20826e-13 0)
(2.9 -6.90974e-14 0)
(2.9 -1.01356e-13 0)
(2.9 -6.47717e-15 0)
(2.9 3.72342e-14 0)
(2.9 -2.48681e-14 0)
(2.9 -9.63994e-14 0)
(2.9 -1.62866e-13 0)
(2.9 -8.54784e-14 0)
(2.9 -7.41807e-14 0)
(2.9 -4.79285e-14 0)
(2.9 -4.10231e-14 0)
(2.9 -6.77821e-14 0)
(2.9 -6.85152e-14 0)
(2.9 -3.3924e-14 0)
(2.9 2.18395e-14 0)
(2.9 -8.58182e-14 0)
(2.9 -9.84078e-14 0)
(2.9 -9.73681e-14 0)
(2.9 -1.89078e-14 0)
(2.9 -5.18815e-14 0)
(2.9 -9.21886e-14 0)
(2.9 -8.31018e-14 0)
(2.9 -8.14546e-14 0)
(2.9 -2.88636e-14 0)
(2.9 -3.46784e-14 0)
(2.9 -4.86851e-14 0)
(2.9 -2.56344e-14 0)
(2.9 -5.38804e-14 0)
(2.9 -1.58618e-13 0)
(2.9 -8.91406e-14 0)
(2.9 -1.1957e-13 0)
(2.9 -6.32619e-14 0)
(2.9 -5.84448e-14 0)
(2.9 -5.07185e-14 0)
(2.9 -5.80407e-14 0)
(2.9 -3.53767e-14 0)
(2.9 -1.29278e-13 0)
(2.9 -1.67823e-13 0)
(2.9 -1.82202e-13 0)
(2.9 -9.84307e-14 0)
(2.9 -4.70554e-14 0)
(2.9 -1.07716e-13 0)
(2.9 -1.9801e-13 0)
(2.9 -1.29744e-13 0)
(2.9 -4.97807e-14 0)
(2.9 7.77873e-14 0)
(2.9 2.16477e-14 0)
(2.9 4.69339e-14 0)
(2.9 1.7702e-14 0)
(2.9 -9.64117e-14 0)
(2.9 -9.2258e-14 0)
(2.9 -3.66436e-14 0)
(2.9 -7.8708e-14 0)
(2.9 -1.12355e-14 0)
(2.9 -6.78774e-14 0)
(2.9 1.63037e-14 0)
(2.9 2.35196e-14 0)
(2.9 -1.05138e-14 0)
(2.9 2.6697e-14 0)
(2.9 -6.08967e-15 0)
(2.9 4.47094e-15 0)
(2.9 -6.85368e-14 0)
(2.9 -3.77896e-14 0)
(2.9 3.22003e-14 0)
(2.9 -4.5229e-14 0)
(2.9 -1.19938e-13 0)
(2.9 -1.24929e-13 0)
(2.9 -8.30074e-14 0)
(2.9 -1.04067e-13 0)
(2.9 -1.36439e-13 0)
(2.9 -6.07663e-14 0)
(2.9 -4.73361e-14 0)
(2.9 -1.21044e-13 0)
(2.9 -2.57423e-14 0)
(2.9 2.26741e-14 0)
(2.9 -9.48095e-14 0)
(2.9 -1.07772e-13 0)
(2.9 -5.90524e-14 0)
(2.9 -1.51391e-14 0)
(2.9 -5.75298e-14 0)
(2.9 -1.49206e-13 0)
(2.9 -1.76092e-13 0)
(2.9 -1.08146e-13 0)
(2.9 -1.98019e-14 0)
(2.9 -1.66427e-14 0)
(2.9 -1.03968e-14 0)
(2.9 7.19413e-14 0)
(2.9 -1.13759e-13 0)
(2.9 -1.23094e-13 0)
(2.9 -9.65724e-14 0)
(2.9 -1.06518e-13 0)
(2.9 -1.72586e-14 0)
(2.9 1.30185e-14 0)
(2.9 4.91254e-14 0)
(2.9 1.58997e-14 0)
(2.9 -7.49037e-14 0)
(2.9 -1.40522e-13 0)
(2.9 -1.696e-13 0)
(2.9 -1.6365e-13 0)
(2.9 -1.38239e-13 0)
(2.9 -7.20332e-14 0)
(2.9 -8.02733e-14 0)
(2.9 -1.92538e-13 0)
(2.9 -7.76042e-14 0)
(2.9 -2.23644e-14 0)
(2.9 4.26268e-14 0)
(2.9 1.61536e-14 0)
(2.9 -4.92979e-14 0)
(2.9 -8.87228e-14 0)
(2.9 -5.84388e-14 0)
(2.9 -4.61543e-14 0)
(2.9 -1.28772e-14 0)
(2.9 -8.06065e-15 0)
(2.9 5.82805e-14 0)
(2.9 1.748e-15 0)
(2.9 7.71763e-15 0)
(2.9 2.88045e-14 0)
(2.9 -6.35189e-14 0)
(2.9 -1.76408e-14 0)
(2.9 8.00124e-15 0)
(2.9 -3.3943e-14 0)
(2.9 -1.17891e-13 0)
(2.9 -1.54593e-13 0)
(2.9 -1.40705e-13 0)
(2.9 -1.1402e-13 0)
(2.9 -1.38122e-13 0)
(2.9 -5.45044e-14 0)
(2.9 -8.18298e-14 0)
(2.9 -6.15677e-14 0)
(2.9 -6.05779e-14 0)
(2.9 4.30905e-15 0)
(2.9 -2.76444e-14 0)
(2.9 -4.98823e-14 0)
(2.9 -6.01402e-14 0)
(2.9 -7.79194e-14 0)
(2.9 -1.29714e-13 0)
(2.9 -6.19099e-14 0)
(2.9 1.80658e-14 0)
(2.9 -5.41645e-14 0)
(2.9 -9.98173e-14 0)
(2.9 -2.0972e-13 0)
(2.9 -1.87999e-13 0)
(2.9 -1.11647e-13 0)
(2.9 -4.94506e-14 0)
(2.9 1.75703e-14 0)
(2.9 -4.93796e-14 0)
(2.9 2.59863e-14 0)
(2.9 -4.4648e-14 0)
(2.9 -1.53945e-14 0)
(2.9 -1.14394e-13 0)
(2.9 -4.59275e-14 0)
(2.9 5.5307e-14 0)
(2.9 7.0922e-14 0)
(2.9 1.22904e-13 0)
(2.9 7.04655e-14 0)
(2.9 -5.08793e-14 0)
(2.9 -1.02975e-13 0)
(2.9 -1.33851e-13 0)
(2.9 -9.31515e-14 0)
(2.9 -1.49771e-13 0)
(2.9 -7.56624e-14 0)
(2.9 -4.82043e-14 0)
(2.9 -1.2721e-13 0)
(2.9 -5.198e-14 0)
(2.9 -2.88954e-14 0)
(2.9 -3.98858e-14 0)
(2.9 -5.17197e-14 0)
(2.9 -1.37441e-13 0)
(2.9 -1.09622e-13 0)
(2.9 -2.31914e-14 0)
(2.9 -3.43693e-14 0)
(2.9 -1.61414e-14 0)
(2.9 4.73798e-14 0)
(2.9 7.34805e-14 0)
(2.9 3.66157e-14 0)
(2.9 2.20372e-14 0)
(2.9 3.71583e-15 0)
(2.9 -1.07644e-13 0)
(2.9 -1.52135e-14 0)
(2.9 -3.14147e-14 0)
(2.9 -6.5483e-14 0)
(2.9 -1.49968e-13 0)
(2.9 -2.03247e-13 0)
(2.9 -1.7768e-13 0)
(2.9 -9.99078e-14 0)
(2.9 -1.56223e-13 0)
(2.9 -9.41379e-14 0)
(2.9 -1.22873e-13 0)
(2.9 -2.08789e-14 0)
(2.9 1.71705e-14 0)
(2.9 6.50823e-14 0)
(2.9 3.90014e-14 0)
(2.9 -6.02322e-14 0)
(2.9 -1.01323e-13 0)
(2.9 -8.76016e-14 0)
(2.9 -1.30618e-13 0)
(2.9 -4.38893e-14 0)
(2.9 -4.75008e-14 0)
(2.9 -1.25077e-13 0)
(2.9 -1.02039e-13 0)
(2.9 -1.36359e-13 0)
(2.9 -1.49444e-13 0)
(2.9 -9.64156e-14 0)
(2.9 -8.18865e-14 0)
(2.9 -3.79709e-14 0)
(2.9 -6.69286e-14 0)
(2.9 -7.42451e-15 0)
(2.9 6.05563e-15 0)
(2.9 2.86241e-14 0)
(2.9 -1.12533e-13 0)
(2.9 -3.34446e-15 0)
(2.9 -9.55411e-15 0)
(2.9 1.06445e-13 0)
(2.9 1.67579e-13 0)
(2.9 1.08947e-13 0)
(2.9 8.05817e-16 0)
(2.9 -6.64241e-14 0)
(2.9 -5.72837e-14 0)
(2.9 -3.48446e-14 0)
(2.9 -1.14123e-13 0)
(2.9 -1.29234e-13 0)
(2.9 -7.12342e-14 0)
(2.9 -1.72288e-14 0)
(2.9 8.67271e-14 0)
(2.9 1.35681e-14 0)
(2.9 -8.08694e-14 0)
(2.9 -1.27947e-13 0)
(2.9 -9.73861e-14 0)
(2.9 -2.67498e-14 0)
(2.9 6.29237e-14 0)
(2.9 -1.27139e-14 0)
(2.9 4.73622e-16 0)
(2.9 1.18163e-14 0)
(2.9 9.93856e-14 0)
(2.9 1.11929e-13 0)
(2.9 1.08006e-13 0)
(2.9 2.01259e-15 0)
(2.9 -4.27431e-16 0)
(2.9 1.96788e-14 0)
(2.9 -1.58874e-14 0)
(2.9 -5.36351e-14 0)
(2.9 -9.11566e-14 0)
(2.9 -1.18998e-13 0)
(2.9 -8.03837e-14 0)
(2.9 3.24412e-14 0)
(2.9 -5.98621e-14 0)
(2.9 -9.22066e-14 0)
(2.9 -8.80046e-14 0)
(2.9 -1.26373e-14 0)
(2.9 3.35255e-14 0)
(2.9 6.84005e-14 0)
(2.9 5.88963e-14 0)
(2.9 -1.65637e-14 0)
(2.9 -7.3992e-14 0)
(2.9 -5.10903e-14 0)
(2.9 -7.34605e-14 0)
(2.9 -6.94481e-14 0)
(2.9 -5.52965e-14 0)
(2.9 -1.03203e-13 0)
(2.9 -1.25232e-13 0)
(2.9 -1.04356e-13 0)
(2.9 -9.42496e-14 0)
(2.9 -5.62356e-14 0)
(2.9 -5.44511e-14 0)
(2.9 -8.02521e-14 0)
(2.9 -5.02151e-14 0)
(2.9 -4.33715e-14 0)
(2.9 2.69055e-14 0)
(2.9 2.28005e-15 0)
(2.9 -1.61178e-14 0)
(2.9 -4.4516e-14 0)
(2.9 -6.9617e-14 0)
(2.9 2.81332e-14 0)
(2.9 6.57541e-14 0)
(2.9 4.01483e-15 0)
(2.9 4.6028e-14 0)
(2.9 -2.84235e-14 0)
(2.9 -3.65012e-14 0)
(2.9 -8.05301e-14 0)
(2.9 -1.43731e-13 0)
(2.9 -1.18568e-13 0)
(2.9 -8.62173e-14 0)
(2.9 1.82658e-14 0)
(2.9 7.06144e-14 0)
(2.9 5.56833e-14 0)
(2.9 -8.83591e-14 0)
(2.9 -1.30992e-13 0)
(2.9 -1.96188e-14 0)
(2.9 6.16597e-14 0)
(2.9 -2.91233e-14 0)
(2.9 -3.35622e-14 0)
(2.9 1.8147e-14 0)
(2.9 1.96785e-14 0)
(2.9 1.1228e-13 0)
(2.9 1.12649e-13 0)
(2.9 9.78496e-14 0)
(2.9 2.39182e-14 0)
(2.9 7.62547e-14 0)
(2.9 -8.27018e-15 0)
(2.9 3.93766e-14 0)
(2.9 -1.71628e-14 0)
(2.9 -1.48284e-14 0)
(2.9 9.14563e-15 0)
(2.9 5.18403e-14 0)
(2.9 8.27827e-14 0)
(2.9 3.28946e-14 0)
(2.9 1.76365e-14 0)
(2.9 5.30246e-15 0)
(2.9 8.02826e-14 0)
(2.9 8.40097e-14 0)
(2.9 5.28901e-14 0)
(2.9 5.53022e-14 0)
(2.9 6.08183e-14 0)
(2.9 -2.58811e-14 0)
(2.9 -1.90588e-14 0)
(2.9 1.02826e-14 0)
(2.9 1.4331e-14 0)
(2.9 1.99418e-14 0)
(2.9 2.427e-14 0)
(2.9 -7.90677e-14 0)
(2.9 -6.72055e-14 0)
(2.9 1.26525e-14 0)
(2.9 -2.82787e-14 0)
(2.9 -2.29269e-14 0)
(2.9 -3.70296e-14 0)
(2.9 -3.39377e-14 0)
(2.9 -7.86036e-14 0)
(2.9 -1.3531e-14 0)
(2.9 -1.27993e-14 0)
(2.9 5.02039e-14 0)
(2.9 5.50484e-14 0)
(2.9 5.36917e-15 0)
(2.9 -6.6502e-14 0)
(2.9 -1.17039e-13 0)
(2.9 -6.3145e-16 0)
(2.9 8.44381e-14 0)
(2.9 1.32285e-14 0)
(2.9 1.81711e-14 0)
(2.9 -4.39491e-14 0)
(2.9 -9.79272e-14 0)
(2.9 -5.15154e-14 0)
(2.9 -1.44774e-14 0)
(2.9 9.65187e-14 0)
(2.9 5.38644e-14 0)
(2.9 1.11737e-13 0)
(2.9 -1.13158e-14 0)
(2.9 -8.79503e-14 0)
(2.9 -6.43977e-14 0)
(2.9 2.05296e-14 0)
(2.9 -8.01429e-14 0)
(2.9 -5.7059e-14 0)
(2.9 -4.85136e-14 0)
(2.9 -1.66425e-15 0)
(2.9 4.06861e-14 0)
(2.9 7.54171e-14 0)
(2.9 7.39315e-14 0)
(2.9 4.08217e-14 0)
(2.9 2.46446e-14 0)
(2.9 -7.63837e-14 0)
(2.9 7.07526e-14 0)
(2.9 2.36352e-16 0)
(2.9 6.88264e-14 0)
(2.9 7.86282e-14 0)
(2.9 6.9954e-14 0)
(2.9 6.56457e-15 0)
(2.9 8.98568e-15 0)
(2.9 3.95952e-14 0)
(2.9 9.90394e-14 0)
(2.9 1.24423e-13 0)
(2.9 9.45187e-14 0)
(2.9 4.37258e-14 0)
(2.9 2.20545e-14 0)
(2.9 1.06942e-13 0)
(2.9 3.48579e-14 0)
(2.9 -8.02715e-17 0)
(2.9 9.11548e-14 0)
(2.9 1.05451e-13 0)
(2.9 3.07517e-14 0)
(2.9 9.85527e-14 0)
(2.9 -7.01102e-15 0)
(2.9 8.26114e-16 0)
(2.9 3.97228e-14 0)
(2.9 1.0727e-15 0)
(2.9 -4.44278e-14 0)
(2.9 -7.86297e-14 0)
(2.9 -4.95583e-15 0)
(2.9 1.31551e-14 0)
(2.9 -5.66645e-14 0)
(2.9 -1.20927e-14 0)
(2.9 9.43762e-14 0)
(2.9 4.49077e-14 0)
(2.9 -2.23698e-14 0)
(2.9 -1.34306e-13 0)
(2.9 -7.69055e-14 0)
(2.9 4.00246e-14 0)
(2.9 9.65982e-14 0)
(2.9 1.23028e-14 0)
(2.9 4.93715e-14 0)
(2.9 4.43949e-14 0)
(2.9 4.60523e-14 0)
(2.9 3.81714e-14 0)
(2.9 4.41594e-14 0)
(2.9 1.81496e-13 0)
(2.9 9.21153e-14 0)
(2.9 8.69678e-14 0)
(2.9 9.0877e-14 0)
(2.9 -3.97767e-14 0)
(2.9 -9.27854e-14 0)
(2.9 4.4322e-15 0)
(2.9 -7.94999e-14 0)
(2.9 -2.89546e-14 0)
(2.9 -5.07427e-14 0)
(2.9 -3.93192e-15 0)
(2.9 -5.93253e-14 0)
(2.9 4.17865e-14 0)
(2.9 -2.32841e-14 0)
(2.9 5.54426e-15 0)
(2.9 3.61086e-15 0)
(2.9 -1.0025e-13 0)
(2.9 -1.73882e-14 0)
(2.9 1.00451e-14 0)
(2.9 1.04004e-13 0)
(2.9 1.67488e-13 0)
(2.9 1.02128e-13 0)
(2.9 -1.76132e-14 0)
(2.9 2.73451e-14 0)
(2.9 8.92047e-14 0)
(2.9 1.29067e-13 0)
(2.9 3.22431e-14 0)
(2.9 7.00944e-14 0)
(2.9 2.21749e-14 0)
(2.9 -1.30338e-14 0)
(2.9 4.4964e-14 0)
(2.9 -7.72034e-15 0)
(2.9 1.22051e-14 0)
(2.9 4.57682e-14 0)
(2.9 2.78019e-14 0)
(2.9 -2.41437e-14 0)
(2.9 2.80876e-14 0)
(2.9 -4.51165e-15 0)
(2.9 1.48044e-14 0)
(2.9 3.72285e-14 0)
(2.9 1.61378e-14 0)
(2.9 -7.66718e-15 0)
(2.9 -1.08576e-13 0)
(2.9 4.94734e-14 0)
(2.9 1.15593e-13 0)
(2.9 -3.35617e-14 0)
(2.9 2.40068e-14 0)
(2.9 3.16393e-14 0)
(2.9 -5.22841e-15 0)
(2.9 -5.74579e-14 0)
(2.9 -1.10235e-13 0)
(2.9 -6.974e-14 0)
(2.9 4.42543e-14 0)
(2.9 1.06611e-13 0)
(2.9 3.55078e-14 0)
(2.9 8.38338e-14 0)
(2.9 6.00628e-14 0)
(2.9 6.70954e-14 0)
(2.9 2.78562e-15 0)
(2.9 2.35403e-14 0)
(2.9 1.14963e-13 0)
(2.9 2.74316e-14 0)
(2.9 -8.37688e-15 0)
(2.9 6.16421e-14 0)
(2.9 1.97426e-14 0)
(2.9 -3.40699e-14 0)
(2.9 -5.51153e-14 0)
(2.9 -3.56282e-14 0)
(2.9 2.0749e-16 0)
(2.9 -2.65381e-14 0)
(2.9 -3.20739e-14 0)
(2.9 -3.24679e-14 0)
(2.9 -3.68763e-14 0)
(2.9 -7.70901e-14 0)
(2.9 2.11058e-14 0)
(2.9 4.68695e-14 0)
(2.9 -4.06796e-14 0)
(2.9 -7.71907e-14 0)
(2.9 5.70863e-15 0)
(2.9 1.04434e-13 0)
(2.9 1.22409e-13 0)
(2.9 7.47653e-14 0)
(2.9 3.19868e-14 0)
(2.9 6.32236e-14 0)
(2.9 6.00048e-14 0)
(2.9 1.04624e-13 0)
(2.9 1.72706e-14 0)
(2.9 3.60497e-14 0)
(2.9 2.04281e-14 0)
(2.9 -2.90751e-14 0)
(2.9 -4.80232e-14 0)
(2.9 2.3216e-14 0)
(2.9 -1.91962e-14 0)
(2.9 -1.89446e-14 0)
(2.9 -1.05647e-14 0)
(2.9 -4.52428e-14 0)
(2.9 -2.69237e-14 0)
(2.9 8.03624e-15 0)
(2.9 5.19277e-14 0)
(2.9 3.52804e-15 0)
(2.9 1.59537e-14 0)
(2.9 -4.38622e-14 0)
(2.9 -5.01285e-14 0)
(2.9 3.6526e-14 0)
(2.9 1.49831e-13 0)
(2.9 -3.20706e-16 0)
(2.9 -5.30837e-15 0)
(2.9 -2.38492e-14 0)
(2.9 4.25943e-14 0)
(2.9 -1.24106e-14 0)
(2.9 -2.5844e-14 0)
(2.9 -3.29002e-14 0)
(2.9 -2.60692e-14 0)
(2.9 3.59092e-15 0)
(2.9 -1.22817e-15 0)
(2.9 7.18987e-14 0)
(2.9 6.69719e-14 0)
(2.9 9.54765e-14 0)
(2.9 8.87829e-14 0)
(2.9 3.76173e-14 0)
(2.9 -6.48668e-14 0)
(2.9 -3.69829e-14 0)
(2.9 -2.90947e-14 0)
(2.9 1.42545e-14 0)
(2.9 8.5765e-14 0)
(2.9 5.82292e-14 0)
(2.9 -1.55521e-14 0)
(2.9 2.25022e-14 0)
(2.9 -1.59324e-14 0)
(2.9 -5.09768e-14 0)
(2.9 2.05116e-14 0)
(2.9 -6.14623e-14 0)
(2.9 -1.19435e-13 0)
(2.9 -6.30674e-14 0)
(2.9 5.58523e-14 0)
(2.9 8.61765e-14 0)
(2.9 1.19113e-14 0)
(2.9 1.22902e-14 0)
(2.9 3.69361e-14 0)
(2.9 8.41926e-14 0)
(2.9 6.466e-14 0)
(2.9 6.65299e-14 0)
(2.9 7.25482e-14 0)
(2.9 1.18732e-13 0)
(2.9 6.66325e-14 0)
(2.9 3.31195e-14 0)
(2.9 -1.99908e-14 0)
(2.9 2.5029e-14 0)
(2.9 1.25101e-15 0)
(2.9 -3.38533e-14 0)
(2.9 5.30611e-15 0)
(2.9 7.68129e-15 0)
(2.9 -4.9353e-14 0)
(2.9 -1.30102e-14 0)
(2.9 3.0979e-14 0)
(2.9 1.12639e-14 0)
(2.9 2.35294e-15 0)
(2.9 3.40817e-14 0)
(2.9 7.45748e-14 0)
(2.9 4.97378e-14 0)
(2.9 3.69607e-14 0)
(2.9 -3.47763e-14 0)
(2.9 2.60273e-14 0)
(2.9 5.56758e-14 0)
(2.9 1.47479e-13 0)
(2.9 -4.32183e-14 0)
(2.9 -6.11354e-14 0)
(2.9 4.2944e-14 0)
(2.9 9.87094e-14 0)
(2.9 1.16601e-14 0)
(2.9 -7.61841e-15 0)
(2.9 1.92565e-14 0)
(2.9 -4.81957e-14 0)
(2.9 -5.49843e-14 0)
(2.9 6.24375e-14 0)
(2.9 8.45184e-14 0)
(2.9 8.44679e-14 0)
(2.9 1.77324e-13 0)
(2.9 1.42434e-13 0)
(2.9 2.25457e-14 0)
(2.9 -1.18495e-13 0)
(2.9 -5.25961e-14 0)
(2.9 1.62216e-14 0)
(2.9 3.75594e-14 0)
(2.9 1.4581e-13 0)
(2.9 1.17654e-13 0)
(2.9 6.72961e-14 0)
(2.9 1.03236e-13 0)
(2.9 2.22835e-14 0)
(2.9 3.62547e-14 0)
(2.9 1.06324e-14 0)
(2.9 -9.63029e-14 0)
(2.9 -1.85103e-13 0)
(2.9 -5.7953e-14 0)
(2.9 8.06926e-14 0)
(2.9 1.11647e-13 0)
(2.9 7.58501e-14 0)
(2.9 5.7636e-14 0)
(2.9 9.2761e-14 0)
(2.9 3.01925e-14 0)
(2.9 5.82362e-14 0)
(2.9 9.02797e-14 0)
(2.9 5.33437e-14 0)
(2.9 1.24974e-13 0)
(2.9 7.80642e-14 0)
(2.9 2.37438e-14 0)
(2.9 -5.27063e-14 0)
(2.9 -4.25998e-14 0)
(2.9 -7.24875e-14 0)
(2.9 -2.30334e-14 0)
(2.9 5.71858e-14 0)
(2.9 6.46771e-14 0)
(2.9 -1.00059e-15 0)
(2.9 4.35515e-14 0)
(2.9 6.01634e-14 0)
(2.9 6.51034e-14 0)
(2.9 4.71619e-14 0)
(2.9 2.37522e-14 0)
(2.9 3.00476e-14 0)
(2.9 3.08717e-14 0)
(2.9 1.35626e-14 0)
(2.9 -1.0147e-14 0)
(2.9 1.02164e-13 0)
(2.9 1.30497e-13 0)
(2.9 1.67377e-13 0)
(2.9 -1.46627e-13 0)
(2.9 -1.29032e-13 0)
(2.9 7.18744e-15 0)
(2.9 4.89259e-14 0)
(2.9 2.00214e-14 0)
(2.9 -6.23138e-15 0)
(2.9 3.63756e-14 0)
(2.9 2.85256e-14 0)
(2.9 4.16506e-14 0)
(2.9 1.29235e-13 0)
(2.9 5.97514e-14 0)
(2.9 5.23913e-14 0)
(2.9 1.06392e-13 0)
(2.9 8.26633e-14 0)
(2.9 -2.18476e-14 0)
(2.9 -7.58481e-14 0)
(2.9 3.59495e-14 0)
(2.9 1.17642e-13 0)
(2.9 1.03387e-13 0)
(2.9 1.37494e-13 0)
(2.9 1.22893e-13 0)
(2.9 1.04562e-13 0)
(2.9 7.32568e-14 0)
(2.9 1.06061e-13 0)
(2.9 1.04867e-13 0)
(2.9 2.0918e-14 0)
(2.9 -5.68424e-14 0)
(2.9 -1.39854e-13 0)
(2.9 -1.66173e-14 0)
(2.9 6.79532e-14 0)
(2.9 6.94238e-14 0)
(2.9 3.48256e-14 0)
(2.9 1.15247e-14 0)
(2.9 7.89883e-14 0)
(2.9 -3.12683e-15 0)
(2.9 2.44353e-14 0)
(2.9 5.62853e-15 0)
(2.9 -5.86183e-14 0)
(2.9 3.44912e-14 0)
(2.9 -4.23356e-15 0)
(2.9 2.38595e-14 0)
(2.9 -1.50443e-14 0)
(2.9 -5.301e-14 0)
(2.9 -1.05311e-13 0)
(2.9 -6.81985e-14 0)
(2.9 -4.96031e-14 0)
(2.9 3.1997e-14 0)
(2.9 -3.72158e-14 0)
(2.9 -1.70803e-15 0)
(2.9 -6.62889e-14 0)
(2.9 -1.54456e-14 0)
(2.9 5.6774e-15 0)
(2.9 5.37114e-15 0)
(2.9 1.48393e-14 0)
(2.9 -1.1801e-14 0)
(2.9 -1.47903e-14 0)
(2.9 6.01124e-14 0)
(2.9 8.69499e-14 0)
(2.9 3.23934e-14 0)
(2.9 8.83236e-14 0)
(2.9 -6.00457e-14 0)
(2.9 -8.3092e-14 0)
(2.9 -2.70175e-14 0)
(2.9 2.89497e-14 0)
(2.9 5.48259e-14 0)
(2.9 3.95079e-14 0)
(2.9 -2.53255e-15 0)
(2.9 3.20632e-14 0)
(2.9 4.66401e-14 0)
(2.9 9.884e-14 0)
(2.9 2.77318e-14 0)
(2.9 4.68172e-15 0)
(2.9 3.55903e-15 0)
(2.9 4.21995e-14 0)
(2.9 4.28858e-14 0)
(2.9 2.89371e-15 0)
(2.9 4.50231e-14 0)
(2.9 9.60884e-14 0)
(2.9 1.36619e-13 0)
(2.9 1.2486e-13 0)
(2.9 1.21276e-13 0)
(2.9 7.42346e-14 0)
(2.9 3.95066e-14 0)
(2.9 9.78749e-14 0)
(2.9 6.09136e-14 0)
(2.9 5.81386e-14 0)
(2.9 -7.28484e-15 0)
(2.9 1.84481e-14 0)
(2.9 3.71224e-14 0)
(2.9 3.56558e-14 0)
(2.9 1.29524e-15 0)
(2.9 7.71697e-14 0)
(2.9 2.73828e-14 0)
(2.9 2.51947e-14 0)
(2.9 4.47268e-14 0)
(2.9 -3.01009e-14 0)
(2.9 -8.42643e-14 0)
(2.9 -3.43746e-14 0)
(2.9 -5.67684e-14 0)
(2.9 -7.41713e-14 0)
(2.9 -5.57841e-14 0)
(2.9 -9.51353e-15 0)
(2.9 -8.11819e-14 0)
(2.9 -3.9577e-14 0)
(2.9 -7.44128e-14 0)
(2.9 -1.36981e-13 0)
(2.9 -7.06066e-14 0)
(2.9 -8.15605e-14 0)
(2.9 -3.01522e-15 0)
(2.9 -6.49882e-14 0)
(2.9 -8.46791e-15 0)
(2.9 -3.62428e-14 0)
(2.9 4.68925e-14 0)
(2.9 -8.81837e-15 0)
(2.9 -4.81359e-14 0)
(2.9 4.8555e-15 0)
(2.9 1.11641e-13 0)
(2.9 7.9478e-14 0)
(2.9 -1.70086e-14 0)
(2.9 -6.73847e-14 0)
(2.9 3.58217e-15 0)
(2.9 -9.68335e-14 0)
(2.9 6.32958e-15 0)
(2.9 -3.31959e-14 0)
(2.9 2.6595e-14 0)
(2.9 1.02929e-13 0)
(2.9 2.56648e-14 0)
(2.9 1.82666e-14 0)
(2.9 3.46082e-14 0)
(2.9 3.74821e-14 0)
(2.9 6.46809e-14 0)
(2.9 5.18921e-14 0)
(2.9 -2.64406e-14 0)
(2.9 5.83509e-14 0)
(2.9 9.80084e-14 0)
(2.9 4.87111e-14 0)
(2.9 -4.99679e-14 0)
(2.9 3.71484e-14 0)
(2.9 1.89983e-13 0)
(2.9 8.54705e-14 0)
(2.9 3.8435e-14 0)
(2.9 2.48802e-14 0)
(2.9 1.23637e-14 0)
(2.9 5.2409e-14 0)
(2.9 -5.33609e-14 0)
(2.9 2.73415e-14 0)
(2.9 1.07034e-13 0)
(2.9 1.68747e-13 0)
(2.9 6.66696e-14 0)
(2.9 1.22955e-14 0)
(2.9 -3.67722e-14 0)
(2.9 1.3217e-13 0)
(2.9 5.18614e-14 0)
(2.9 -3.05602e-14 0)
(2.9 5.12988e-14 0)
(2.9 -3.07392e-14 0)
(2.9 -8.44537e-14 0)
(2.9 1.10601e-14 0)
(2.9 -1.16843e-13 0)
(2.9 -7.45552e-14 0)
(2.9 -1.06878e-13 0)
(2.9 -2.93979e-14 0)
(2.9 -1.04397e-13 0)
(2.9 4.1162e-14 0)
(2.9 3.07354e-14 0)
(2.9 -5.96385e-14 0)
(2.9 -1.06503e-13 0)
(2.9 -7.33499e-14 0)
(2.9 -3.61395e-14 0)
(2.9 -6.02943e-16 0)
(2.9 -3.09353e-14 0)
(2.9 -8.37986e-14 0)
(2.9 4.78091e-14 0)
(2.9 -7.57292e-14 0)
(2.9 -3.91966e-14 0)
(2.9 2.77186e-14 0)
(2.9 9.71576e-14 0)
(2.9 1.23469e-13 0)
(2.9 -2.2437e-14 0)
(2.9 -1.89631e-13 0)
(2.9 -6.07354e-14 0)
(2.9 -4.64898e-14 0)
(2.9 -5.14707e-15 0)
(2.9 -8.1546e-14 0)
(2.9 -6.83315e-15 0)
(2.9 3.93834e-14 0)
(2.9 6.78238e-14 0)
(2.9 4.69895e-14 0)
(2.9 1.34818e-13 0)
(2.9 5.7302e-14 0)
(2.9 3.39373e-14 0)
(2.9 2.74798e-14 0)
(2.9 2.44866e-14 0)
(2.9 3.91426e-14 0)
(2.9 4.14999e-14 0)
(2.9 3.75534e-14 0)
(2.9 -5.56726e-14 0)
(2.9 4.1523e-14 0)
(2.9 7.91812e-14 0)
(2.9 4.70622e-14 0)
(2.9 3.53475e-14 0)
(2.9 3.61624e-14 0)
(2.9 5.88116e-14 0)
(2.9 1.09527e-13 0)
(2.9 4.97111e-15 0)
(2.9 -9.56478e-15 0)
(2.9 3.86544e-14 0)
(2.9 1.08042e-13 0)
(2.9 2.46342e-14 0)
(2.9 5.02105e-14 0)
(2.9 2.35809e-14 0)
(2.9 8.59899e-14 0)
(2.9 2.43212e-14 0)
(2.9 -7.64767e-15 0)
(2.9 4.79869e-14 0)
(2.9 2.04762e-15 0)
(2.9 -4.65443e-14 0)
(2.9 2.57113e-14 0)
(2.9 -2.89701e-14 0)
(2.9 -2.28482e-14 0)
(2.9 -8.55494e-14 0)
(2.9 -7.77811e-15 0)
(2.9 -3.50027e-14 0)
(2.9 -9.91556e-15 0)
(2.9 3.60929e-14 0)
(2.9 3.96014e-15 0)
(2.9 -3.22012e-14 0)
(2.9 -1.21138e-14 0)
(2.9 2.46484e-14 0)
(2.9 3.361e-14 0)
(2.9 4.99719e-15 0)
(2.9 2.15347e-14 0)
(2.9 5.03206e-14 0)
(2.9 -1.24371e-14 0)
(2.9 1.02811e-15 0)
(2.9 7.03513e-14 0)
(2.9 6.81553e-14 0)
(2.9 7.01176e-14 0)
(2.9 -2.50168e-14 0)
(2.9 -1.71602e-13 0)
(2.9 -5.11012e-14 0)
(2.9 -2.69697e-14 0)
(2.9 -5.26759e-14 0)
(2.9 -1.51001e-13 0)
(2.9 -4.99665e-14 0)
(2.9 -2.50088e-14 0)
(2.9 -1.07395e-14 0)
(2.9 2.15625e-15 0)
(2.9 7.28356e-14 0)
(2.9 9.19216e-14 0)
(2.9 2.22152e-14 0)
(2.9 -2.66459e-14 0)
(2.9 -1.38609e-14 0)
(2.9 -3.38465e-14 0)
(2.9 -2.17972e-14 0)
(2.9 -2.771e-14 0)
(2.9 -2.83032e-14 0)
(2.9 1.30919e-14 0)
(2.9 -5.27349e-14 0)
(2.9 2.53328e-14 0)
(2.9 4.19906e-14 0)
(2.9 1.2037e-14 0)
(2.9 4.59309e-14 0)
(2.9 1.21357e-13 0)
(2.9 7.50008e-14 0)
(2.9 1.45787e-14 0)
(2.9 -4.15424e-14 0)
(2.9 -5.18106e-14 0)
(2.9 3.8471e-14 0)
(2.9 8.56688e-14 0)
(2.9 6.3353e-14 0)
(2.9 7.96735e-14 0)
(2.9 -3.35507e-15 0)
(2.9 3.27201e-14 0)
(2.9 6.94571e-14 0)
(2.9 7.06224e-14 0)
(2.9 2.92064e-14 0)
(2.9 -2.90397e-14 0)
(2.9 3.89907e-14 0)
(2.9 9.10446e-14 0)
(2.9 -6.14797e-15 0)
(2.9 2.71563e-14 0)
(2.9 9.3071e-14 0)
(2.9 -1.66697e-14 0)
(2.9 -3.16919e-14 0)
(2.9 1.77776e-14 0)
(2.9 3.69614e-14 0)
(2.9 2.53351e-14 0)
(2.9 1.20207e-14 0)
(2.9 6.67198e-14 0)
(2.9 5.32228e-14 0)
(2.9 1.2031e-13 0)
(2.9 8.48094e-14 0)
(2.9 1.24797e-13 0)
(2.9 1.12752e-13 0)
(2.9 1.49689e-13 0)
(2.9 8.77332e-14 0)
(2.9 5.9404e-14 0)
(2.9 -8.03959e-14 0)
(2.9 -1.19041e-13 0)
(2.9 -2.60908e-14 0)
(2.9 4.87287e-15 0)
(2.9 -4.60954e-14 0)
(2.9 -8.35878e-14 0)
(2.9 -9.3012e-14 0)
(2.9 -1.14801e-13 0)
(2.9 -7.20325e-14 0)
(2.9 -1.00341e-13 0)
(2.9 -2.59607e-14 0)
(2.9 -2.77317e-14 0)
(2.9 4.63455e-14 0)
(2.9 2.75275e-14 0)
(2.9 -2.40454e-14 0)
(2.9 -6.66079e-14 0)
(2.9 -4.1445e-14 0)
(2.9 -3.04827e-14 0)
(2.9 5.06514e-14 0)
(2.9 -3.44863e-14 0)
(2.9 -1.40732e-13 0)
(2.9 7.93557e-15 0)
(2.9 7.89722e-14 0)
(2.9 -6.12182e-15 0)
(2.9 8.59054e-15 0)
(2.9 2.85931e-14 0)
(2.9 2.34915e-14 0)
(2.9 5.42974e-14 0)
(2.9 -4.7504e-14 0)
(2.9 -1.22467e-13 0)
(2.9 5.50839e-15 0)
(2.9 4.85156e-14 0)
(2.9 8.01016e-14 0)
(2.9 3.7718e-14 0)
(2.9 4.60404e-14 0)
(2.9 6.09373e-14 0)
(2.9 2.90459e-14 0)
(2.9 6.11834e-14 0)
(2.9 4.60073e-14 0)
(2.9 -4.46769e-14 0)
(2.9 9.11478e-14 0)
(2.9 1.57954e-13 0)
(2.9 9.53726e-14 0)
(2.9 5.85738e-15 0)
(2.9 8.58697e-14 0)
(2.9 1.81461e-14 0)
(2.9 1.37668e-14 0)
(2.9 5.3661e-14 0)
(2.9 -2.75414e-15 0)
(2.9 1.03901e-13 0)
(2.9 3.97994e-15 0)
(2.9 1.02878e-13 0)
(2.9 1.36541e-13 0)
(2.9 1.42894e-13 0)
(2.9 1.30867e-13 0)
(2.9 1.46662e-13 0)
(2.9 1.03809e-13 0)
(2.9 1.73209e-13 0)
(2.9 1.66765e-13 0)
(2.9 8.09767e-14 0)
(2.9 -4.3039e-14 0)
(2.9 3.86871e-15 0)
(2.9 2.63706e-14 0)
(2.9 3.4513e-14 0)
(2.9 3.54332e-14 0)
(2.9 3.30584e-15 0)
(2.9 -9.87942e-14 0)
(2.9 -1.06891e-13 0)
(2.9 -8.24875e-14 0)
(2.9 -4.39869e-14 0)
(2.9 -9.19595e-14 0)
(2.9 -1.62227e-14 0)
(2.9 3.95124e-14 0)
(2.9 2.82578e-15 0)
(2.9 -4.40477e-14 0)
(2.9 -1.25545e-13 0)
(2.9 -2.62679e-14 0)
(2.9 5.78445e-15 0)
(2.9 6.51376e-14 0)
(2.9 -5.96319e-15 0)
(2.9 -6.89875e-14 0)
(2.9 -4.66834e-14 0)
(2.9 6.35627e-14 0)
(2.9 6.66209e-14 0)
(2.9 -3.3265e-14 0)
(2.9 -3.64883e-14 0)
(2.9 -4.63597e-14 0)
(2.9 -2.46301e-14 0)
(2.9 -7.56519e-14 0)
(2.9 -9.24281e-14 0)
(2.9 -8.26895e-15 0)
(2.9 3.46709e-14 0)
(2.9 6.05435e-14 0)
(2.9 -1.46465e-14 0)
(2.9 1.50131e-14 0)
(2.9 3.94862e-14 0)
(2.9 -4.61655e-14 0)
(2.9 6.63812e-14 0)
(2.9 8.94363e-14 0)
(2.9 1.39281e-14 0)
(2.9 9.10198e-14 0)
(2.9 1.37911e-13 0)
(2.9 4.5535e-14 0)
(2.9 -3.76339e-14 0)
(2.9 2.32745e-14 0)
(2.9 -1.59653e-14 0)
(2.9 4.98636e-14 0)
(2.9 2.99947e-14 0)
(2.9 3.5752e-14 0)
(2.9 6.37996e-14 0)
(2.9 1.18915e-14 0)
(2.9 1.57334e-14 0)
(2.9 8.64986e-14 0)
(2.9 8.54317e-14 0)
(2.9 2.79613e-14 0)
(2.9 6.52163e-14 0)
(2.9 1.34137e-14 0)
(2.9 6.43149e-15 0)
(2.9 1.11453e-13 0)
(2.9 6.70233e-14 0)
(2.9 6.93118e-14 0)
(2.9 1.19532e-13 0)
(2.9 8.95559e-14 0)
(2.9 1.07942e-13 0)
(2.9 7.52439e-14 0)
(2.9 4.54776e-14 0)
(2.9 -6.54341e-14 0)
(2.9 -3.04857e-14 0)
(2.9 -6.22426e-14 0)
(2.9 -3.8171e-14 0)
(2.9 -9.36257e-14 0)
(2.9 6.57738e-15 0)
(2.9 -2.07146e-14 0)
(2.9 -1.8467e-14 0)
(2.9 -1.02856e-13 0)
(2.9 -1.28385e-13 0)
(2.9 1.08228e-14 0)
(2.9 9.45374e-14 0)
(2.9 5.91177e-14 0)
(2.9 -2.08048e-14 0)
(2.9 -3.86379e-14 0)
(2.9 -6.85293e-14 0)
(2.9 5.98367e-14 0)
(2.9 7.81366e-14 0)
(2.9 -4.69596e-14 0)
(2.9 -1.56325e-13 0)
(2.9 -8.07242e-14 0)
(2.9 -7.60936e-14 0)
(2.9 -8.68214e-14 0)
(2.9 -6.85245e-14 0)
(2.9 1.49116e-14 0)
(2.9 -1.00628e-15 0)
(2.9 1.44635e-14 0)
(2.9 -4.77608e-14 0)
(2.9 9.16434e-15 0)
(2.9 4.94597e-14 0)
(2.9 -5.59225e-14 0)
(2.9 7.76719e-15 0)
(2.9 1.25233e-13 0)
(2.9 5.53697e-14 0)
(2.9 6.26606e-14 0)
(2.9 8.26654e-15 0)
(2.9 3.87669e-14 0)
(2.9 -2.85338e-14 0)
(2.9 1.30447e-15 0)
(2.9 -3.86907e-14 0)
(2.9 1.75495e-14 0)
(2.9 2.5549e-14 0)
(2.9 8.34816e-14 0)
(2.9 8.16563e-15 0)
(2.9 1.84713e-14 0)
(2.9 -4.97719e-14 0)
(2.9 -1.63189e-14 0)
(2.9 7.47792e-16 0)
(2.9 -7.74812e-14 0)
(2.9 -3.01336e-14 0)
(2.9 -8.07124e-14 0)
(2.9 -7.42856e-14 0)
(2.9 -1.49346e-14 0)
(2.9 -7.15474e-14 0)
(2.9 2.95176e-15 0)
(2.9 1.24124e-13 0)
(2.9 4.44804e-14 0)
(2.9 5.87922e-14 0)
(2.9 3.0013e-14 0)
(2.9 9.14967e-14 0)
(2.9 5.87963e-14 0)
(2.9 2.68718e-14 0)
(2.9 -1.02568e-15 0)
(2.9 1.10106e-14 0)
(2.9 -8.1695e-14 0)
(2.9 -3.55859e-14 0)
(2.9 -7.35551e-14 0)
(2.9 -3.27047e-14 0)
(2.9 -1.20087e-13 0)
(2.9 -8.82759e-14 0)
(2.9 -3.74741e-15 0)
(2.9 7.17334e-14 0)
(2.9 1.67729e-14 0)
(2.9 -6.56176e-14 0)
(2.9 -6.68481e-14 0)
(2.9 -3.46283e-14 0)
(2.9 3.42077e-14 0)
(2.9 -4.52486e-14 0)
(2.9 -5.75409e-14 0)
(2.9 -1.94155e-13 0)
(2.9 -7.08449e-14 0)
(2.9 -5.5637e-14 0)
(2.9 -4.26028e-14 0)
(2.9 -5.36587e-14 0)
(2.9 5.86887e-14 0)
(2.9 -4.45693e-14 0)
(2.9 -5.05419e-14 0)
(2.9 -4.12102e-14 0)
(2.9 3.32281e-14 0)
(2.9 4.04056e-14 0)
(2.9 -3.60466e-14 0)
(2.9 -2.69845e-15 0)
(2.9 9.13924e-14 0)
(2.9 2.03944e-14 0)
(2.9 -1.55746e-14 0)
(2.9 -7.62967e-14 0)
(2.9 -7.26139e-15 0)
(2.9 8.6517e-14 0)
(2.9 5.23102e-14 0)
(2.9 -2.04535e-15 0)
(2.9 -3.69535e-14 0)
(2.9 -2.55298e-14 0)
(2.9 6.56531e-14 0)
(2.9 1.39902e-14 0)
(2.9 7.29759e-14 0)
(2.9 -1.00386e-14 0)
(2.9 2.16442e-14 0)
(2.9 -1.71389e-14 0)
(2.9 -1.22832e-13 0)
(2.9 -6.33654e-14 0)
(2.9 -7.04898e-14 0)
(2.9 -1.01636e-13 0)
(2.9 -7.96059e-14 0)
(2.9 -1.60954e-13 0)
(2.9 -1.08726e-13 0)
(2.9 2.99218e-14 0)
(2.9 5.70217e-14 0)
(2.9 4.31013e-14 0)
(2.9 -8.11431e-15 0)
(2.9 8.95475e-14 0)
(2.9 9.06137e-14 0)
(2.9 1.08934e-14 0)
(2.9 5.43472e-14 0)
(2.9 -3.60391e-14 0)
(2.9 -5.01022e-14 0)
(2.9 -7.91518e-14 0)
(2.9 -7.0676e-14 0)
(2.9 -2.39839e-14 0)
(2.9 -8.4669e-14 0)
(2.9 -1.10549e-13 0)
(2.9 -5.86203e-14 0)
(2.9 -6.34744e-14 0)
(2.9 -5.02811e-14 0)
(2.9 -3.64268e-14 0)
(2.9 -6.67298e-14 0)
(2.9 -6.37233e-14 0)
(2.9 -4.0677e-14 0)
(2.9 5.75406e-15 0)
(2.9 -1.77126e-14 0)
(2.9 -1.45496e-13 0)
(2.9 -1.45334e-13 0)
(2.9 -1.02903e-13 0)
(2.9 -5.48023e-14 0)
(2.9 1.34417e-14 0)
(2.9 2.59774e-14 0)
(2.9 -7.92749e-14 0)
(2.9 -4.40648e-14 0)
(2.9 -3.72452e-14 0)
(2.9 -4.83544e-14 0)
(2.9 -7.92967e-14 0)
(2.9 -8.53143e-14 0)
(2.9 -6.49567e-14 0)
(2.9 -4.07736e-14 0)
(2.9 -3.53839e-14 0)
(2.9 -8.82514e-14 0)
(2.9 -4.53911e-14 0)
(2.9 3.10233e-15 0)
(2.9 8.7336e-14 0)
(2.9 3.90174e-14 0)