/*--------------------------------*- C++ -*----------------------------------*\
| =========                 |                                                 |
| \\      /  F ield         | OpenFOAM: The Open Source CFD Toolbox           |
|  \\    /   O peration     | Version:  2412                                  |
|   \\  /    A nd           | Website:  www.openfoam.com                      |
|    \\/     M anipulation  |                                                 |
\*---------------------------------------------------------------------------*/
FoamFile
{
    version     2.0;
    format      ascii;
    arch        "LSB;label=32;scalar=64";
    class       volScalarField;
    location    "0.0491128";
    object      p;
}
// * * * * * * * * * * * * * * * * * * * * * * * * * * * * * * * * * * * * * //

dimensions      [1 -1 -2 0 0 0 0];

internalField   nonuniform List<scalar> 
100
(
90684.9
87371.7
94120
89704.3
95635.8
101196
105386
64980.1
39240.3
38937.8
38036.8
37587.5
37606.1
38350
39479.7
41022.5
41059.9
41665.5
40196.7
39631.2
39337.2
40148.1
41692.7
44750.9
45274.6
45930.9
45380.5
43044.3
41204.5
41344.7
41643
42285.8
44024.3
46425.4
47245.2
47712.6
47849.1
47633.4
47675.8
47971.4
48173.8
48008.1
47937.9
48325.7
48853.4
49878.6
50897.2
51436.2
51693
51027.2
50671.4
51047.6
52256.2
56572.2
59550.3
60387
60895.7
60435.9
57059.1
53010.4
51381.6
51121.4
51274.4
51364.2
51459.5
51448.3
51845.6
52300
52976.9
53593.3
54205.9
54931.9
54855.5
54694.7
53459.1
53605
52677.3
53219.8
53206.5
53640.5
54564.4
54423.4
55245.3
54052.8
54747
53915.9
54374
54376.8
54297.3
54527.8
54201.7
54488.6
54036.7
54496.1
53952.1
54413.2
53970.9
54358.5
54201.3
54338.7
)
;

boundaryField
{
    sides
    {
        type            zeroGradient;
    }
    empty
    {
        type            empty;
    }
}


// ************************************************************************* //
