/*--------------------------------*- C++ -*----------------------------------*\
| =========                 |                                                 |
| \\      /  F ield         | OpenFOAM: The Open Source CFD Toolbox           |
|  \\    /   O peration     | Version:  2412                                  |
|   \\  /    A nd           | Website:  www.openfoam.com                      |
|    \\/     M anipulation  |                                                 |
\*---------------------------------------------------------------------------*/
FoamFile
{
    version     2.0;
    format      ascii;
    arch        "LSB;label=32;scalar=64";
    class       surfaceScalarField;
    location    "0.0491128";
    object      phiRhoY_Y_N2;
}
// * * * * * * * * * * * * * * * * * * * * * * * * * * * * * * * * * * * * * //

dimensions      [1 0 -1 0 0 0 0];

internalField   nonuniform List<scalar> 
99
(
-103.422
-138.256
-119.849
-29.3161
110.026
174.613
-9.75664
-477.836
-511.393
-503.946
-466.509
-455.638
-455.741
-462.244
-494.865
-504.188
-504.777
-496.904
-455.201
-436.727
-436.352
-439.642
-494.666
-530.296
-532.885
-532.414
-504.098
-431.898
-406.055
-404.101
-402.802
-408.946
-452.833
-481.382
-483.968
-484.302
-475.225
-462.613
-458.57
-456.267
-449.522
-434.385
-427.352
-426.548
-429.265
-443.936
-450.335
-451.297
-442.002
-416.648
-406.832
-406.053
-436.389
-520.565
-541.898
-543.633
-540.748
-509.542
-418.253
-347.298
-320.905
-310.376
-303.271
-295.359
-285.837
-277.825
-275.518
-275.101
-275.548
-276.905
-278.254
-276.915
-265.982
-246.947
-225.643
-209.845
-199.146
-192.542
-187.979
-185.21
-181.933
-167.735
-133.01
-89.3626
-47.7011
-15.5245
-1.55154
0
-0.586147
-0.52604
0
-0.0181557
-0.0158234
-2.36314e-05
-1.99313e-05
0
0
0
0
)
;

boundaryField
{
    sides
    {
        type            calculated;
        value           uniform 0;
    }
    empty
    {
        type            empty;
    }
}


// ************************************************************************* //
