/*--------------------------------*- C++ -*----------------------------------*\
| =========                 |                                                 |
| \\      /  F ield         | OpenFOAM: The Open Source CFD Toolbox           |
|  \\    /   O peration     | Version:  2412                                  |
|   \\  /    A nd           | Website:  www.openfoam.com                      |
|    \\/     M anipulation  |                                                 |
\*---------------------------------------------------------------------------*/
FoamFile
{
    version     2.0;
    format      ascii;
    arch        "LSB;label=32;scalar=64";
    class       surfaceScalarField;
    location    "0.0407071";
    object      phiRhoY_Y_N2;
}
// * * * * * * * * * * * * * * * * * * * * * * * * * * * * * * * * * * * * * //

dimensions      [1 0 -1 0 0 0 0];

internalField   nonuniform List<scalar> 
99
(
3.08823
6.23575
9.43233
12.6659
15.9206
19.1776
22.409
25.5952
28.737
31.848
34.9351
37.9864
41.0037
44.029
47.1105
50.2511
53.4241
56.6105
60.1414
64.1487
64.5657
-107.755
-509.273
-516.727
-487.487
-450.634
-428.372
-415.469
-414.172
-415.561
-447.957
-474.576
-477.425
-479.073
-474.017
-431.649
-383.923
-370.803
-370.034
-375.237
-401.633
-419.658
-423.216
-424.78
-420.536
-398.484
-384.498
-383.812
-389.743
-397.934
-399.371
-387.457
-360.074
-349.765
-349.077
-360.437
-368.772
-369.757
-354.445
-326.475
-314.365
-313.095
-332.382
-357.647
-361.84
-356.46
-324.132
-284.255
-262.08
-262.072
-263.653
-277.029
-285.522
-285.488
-281.172
-272.679
-263.337
-256.116
-249.876
-236.446
-221.359
-218.166
-216.931
-216.325
-215.716
-204.989
-171.603
-123.758
-66.8837
-29.7075
-8.94836
-1.69581
-0.253961
-0.020761
-0.000843799
0
0
0
0
)
;

boundaryField
{
    sides
    {
        type            calculated;
        value           uniform 0;
    }
    empty
    {
        type            empty;
    }
}


// ************************************************************************* //
