/*--------------------------------*- C++ -*----------------------------------*\
| =========                 |                                                 |
| \\      /  F ield         | OpenFOAM: The Open Source CFD Toolbox           |
|  \\    /   O peration     | Version:  2412                                  |
|   \\  /    A nd           | Website:  www.openfoam.com                      |
|    \\/     M anipulation  |                                                 |
\*---------------------------------------------------------------------------*/
FoamFile
{
    version     2.0;
    format      ascii;
    arch        "LSB;label=32;scalar=64";
    class       volScalarField;
    location    "0.0509205";
    object      TTR;
}
// * * * * * * * * * * * * * * * * * * * * * * * * * * * * * * * * * * * * * //

dimensions      [0 0 0 1 0 0 0];

internalField   nonuniform List<scalar> 
100
(
312.789
307.381
325.697
314.934
321.647
314.14
313.906
312.62
311.168
318.291
312.286
299.486
258.978
256.414
256.773
258.955
257.75
257.526
251.739
252.643
250.196
253.283
251.503
256.997
257.114
260.325
258.459
260.31
258.057
259.56
258.417
259.561
258.24
258.748
258.433
259.245
259.893
261.287
261.614
262.184
261.548
260.918
261.168
262.282
266.347
270.106
271.082
271.387
271.401
268.78
263.848
260.988
260.482
260.664
260.999
261.01
260.83
260.712
261.168
261.901
262.801
263.766
264.754
265.304
265.992
265.835
265.341
264.17
264.136
263.749
263.979
264.538
264.253
265.517
263.376
264.989
260.968
263.475
260.705
263.942
266.549
270.726
284.323
294.782
319.083
334.972
354.504
359.541
364.452
367.276
367.231
369.563
366.838
369.685
365.747
368.476
364.817
366.819
365.022
365.438
)
;

boundaryField
{
    sides
    {
        type            zeroGradient;
    }
    empty
    {
        type            empty;
    }
}


// ************************************************************************* //
