/*--------------------------------*- C++ -*----------------------------------*\
| =========                 |                                                 |
| \\      /  F ield         | OpenFOAM: The Open Source CFD Toolbox           |
|  \\    /   O peration     | Version:  2412                                  |
|   \\  /    A nd           | Website:  www.openfoam.com                      |
|    \\/     M anipulation  |                                                 |
\*---------------------------------------------------------------------------*/
FoamFile
{
    version     2.0;
    format      ascii;
    arch        "LSB;label=32;scalar=64";
    class       surfaceScalarField;
    location    "0.00157801";
    object      phiRhoY_Y_N2;
}
// * * * * * * * * * * * * * * * * * * * * * * * * * * * * * * * * * * * * * //

dimensions      [1 0 -1 0 0 0 0];

internalField   nonuniform List<scalar> 
99
(
1.13687e-13
0
1.13687e-13
1.13687e-13
1.13687e-13
1.13687e-13
-2.27374e-13
-1.13687e-13
0
1.13687e-13
1.13687e-13
0
-4.54747e-13
-1.13687e-13
0
2.27374e-13
1.13687e-13
0
-2.27374e-13
-1.13687e-13
2.27374e-13
3.41061e-13
-1.13687e-13
-1.13687e-13
2.27374e-13
3.41061e-13
-1.13687e-13
2.27374e-13
2.27374e-13
2.27374e-13
5.68434e-13
1.13687e-13
4.54747e-13
2.27374e-13
0
-2.27374e-13
-4.54747e-13
-3.41061e-13
4.77485e-12
9.46159e-09
9.39939e-06
0.00526935
0.991509
26.7796
133.412
265.31
372.105
463.89
492.156
490.409
513.486
484.93
324.307
150.762
52.5818
12.941
1.33605
0.00240786
1.84231e-10
2.11715e-23
6.12367e-42
-7.59645e-65
0
0
0
0
0
0
0
0
0
0
0
0
0
0
0
0
0
0
0
0
0
0
0
0
0
0
0
0
0
0
0
0
0
0
0
0
0
)
;

boundaryField
{
    sides
    {
        type            calculated;
        value           uniform 0;
    }
    empty
    {
        type            empty;
    }
}


// ************************************************************************* //
