/*--------------------------------*- C++ -*----------------------------------*\
| =========                 |                                                 |
| \\      /  F ield         | OpenFOAM: The Open Source CFD Toolbox           |
|  \\    /   O peration     | Version:  2412                                  |
|   \\  /    A nd           | Website:  www.openfoam.com                      |
|    \\/     M anipulation  |                                                 |
\*---------------------------------------------------------------------------*/
FoamFile
{
    version     2.0;
    format      ascii;
    arch        "LSB;label=32;scalar=64";
    class       surfaceScalarField;
    location    "0.00623924";
    object      phiRhoY_Y_N2;
}
// * * * * * * * * * * * * * * * * * * * * * * * * * * * * * * * * * * * * * //

dimensions      [1 0 -1 0 0 0 0];

internalField   nonuniform List<scalar> 
99
(
-3.41061e-13
-1.02318e-12
-3.41061e-13
-6.82121e-13
-7.95808e-13
-3.41061e-13
-7.95808e-13
-6.82121e-13
-7.95808e-13
-5.68434e-13
-3.41061e-13
-7.95808e-13
-4.54747e-13
-2.27374e-13
-2.27374e-13
2.27374e-13
4.54747e-13
5.68434e-13
6.82121e-13
4.54747e-13
5.68434e-13
3.41061e-13
1.13687e-12
5.29781e-11
2.80888e-08
1.24061e-05
0.00389589
0.479553
11.0383
56.4236
122.545
181.932
229.78
269.659
304.563
335.808
364.163
389.691
412.257
433.125
449.944
464.261
479.935
489.552
494.947
503.31
521.533
524.244
509.213
504.474
519.785
547.35
548.253
504.24
491.225
513.916
544.308
543.438
502.487
495.399
516.14
564.187
558.994
474.449
326.86
194.657
105.241
50.7692
21.8263
8.93112
3.39493
1.20058
0.401063
0.119632
0.0321676
0.00770269
0.00176465
0.000393042
7.13889e-05
5.02692e-06
3.11732e-09
3.19227e-17
2.08431e-31
2.47962e-51
-1.65814e-75
0
0
0
0
0
0
0
0
0
0
0
0
0
0
)
;

boundaryField
{
    sides
    {
        type            calculated;
        value           uniform 0;
    }
    empty
    {
        type            empty;
    }
}


// ************************************************************************* //
