/*--------------------------------*- C++ -*----------------------------------*\
| =========                 |                                                 |
| \\      /  F ield         | OpenFOAM: The Open Source CFD Toolbox           |
|  \\    /   O peration     | Version:  2412                                  |
|   \\  /    A nd           | Website:  www.openfoam.com                      |
|    \\/     M anipulation  |                                                 |
\*---------------------------------------------------------------------------*/
FoamFile
{
    version     2.0;
    format      ascii;
    arch        "LSB;label=32;scalar=64";
    class       volScalarField;
    location    "0.0147678";
    object      rho;
}
// * * * * * * * * * * * * * * * * * * * * * * * * * * * * * * * * * * * * * //

dimensions      [1 -3 0 0 0 0 0];

internalField   nonuniform List<scalar> 
100
(
1.12298
1.12016
1.10226
1.06748
1.03342
1.00736
0.987042
0.96949
0.95305
0.937028
0.921207
0.905554
0.890084
0.874811
0.859742
0.844878
0.830212
0.815746
0.801462
0.787391
0.773477
0.759839
0.746323
0.733175
0.720214
0.707382
0.69527
0.682233
0.67096
0.658259
0.646811
0.635662
0.623857
0.613053
0.601737
0.591575
0.5801
0.569649
0.559121
0.549429
0.53885
0.528463
0.518738
0.509738
0.50025
0.491626
0.484114
0.474857
0.46548
0.460069
0.461376
0.464838
0.464424
0.452478
0.446792
0.463352
0.484322
0.475825
0.437783
0.429254
0.469856
0.503576
0.484194
0.427617
0.4181
0.466654
0.509341
0.493231
0.43387
0.416292
0.44789
0.502008
0.50343
0.456982
0.41989
0.426245
0.476414
0.514947
0.505885
0.454125
0.405239
0.401619
0.433196
0.49435
0.537612
0.539667
0.523609
0.486077
0.526496
0.806234
0.859129
0.824836
0.808439
0.81237
0.807933
0.810309
0.814828
0.815318
0.819284
0.812708
)
;

boundaryField
{
    sides
    {
        type            calculated;
        value           nonuniform List<scalar> 2(0.812708 1.12298);
    }
    empty
    {
        type            empty;
    }
}


// ************************************************************************* //
