/*--------------------------------*- C++ -*----------------------------------*\
| =========                 |                                                 |
| \\      /  F ield         | OpenFOAM: The Open Source CFD Toolbox           |
|  \\    /   O peration     | Version:  2412                                  |
|   \\  /    A nd           | Website:  www.openfoam.com                      |
|    \\/     M anipulation  |                                                 |
\*---------------------------------------------------------------------------*/
FoamFile
{
    version     2.0;
    format      ascii;
    arch        "LSB;label=32;scalar=64";
    class       volScalarField;
    location    "0.024139";
    object      p;
}
// * * * * * * * * * * * * * * * * * * * * * * * * * * * * * * * * * * * * * //

dimensions      [1 -1 -2 0 0 0 0];

internalField   nonuniform List<scalar> 
100
(
35642.6
35645.3
35628.1
35632.8
35608.2
35605.4
35583.4
35586.3
35543.5
35565.2
35455.7
35556.7
35318.8
35581.3
35146.2
35603.5
34986.8
35553.7
34869.6
35413.2
34812.5
35246.2
34789.8
35080.1
34746.4
34867.1
34593.3
34569.8
34340.1
34259.2
34099.5
34065.7
34043.8
34097.6
34039.1
33908.8
33895.2
34653.9
36383
36782.5
36226.1
35680.7
35150.7
34481.6
33520.9
32737.2
32307.5
31838.2
31546.4
31580.6
31707.4
31750.7
31823.3
31842
31747
31694.6
31866.8
31947.9
31652
31485.2
31884.4
32244.3
31836.9
31034.2
31270.3
32580.8
32951.3
31377.1
30594
42385.6
79444.1
85559.2
104742
85733.1
96179.7
94703.4
88733.1
100744
94398.2
102220
102632
99113.1
100286
96545.4
95305.4
96630.5
94747.6
94947.2
95620.3
98280.4
100186
100648
96947.9
97344
94328.7
96520.5
95939.8
98287
98216.8
98823
)
;

boundaryField
{
    sides
    {
        type            zeroGradient;
    }
    empty
    {
        type            empty;
    }
}


// ************************************************************************* //
