/*--------------------------------*- C++ -*----------------------------------*\
| =========                 |                                                 |
| \\      /  F ield         | OpenFOAM: The Open Source CFD Toolbox           |
|  \\    /   O peration     | Version:  2412                                  |
|   \\  /    A nd           | Website:  www.openfoam.com                      |
|    \\/     M anipulation  |                                                 |
\*---------------------------------------------------------------------------*/
FoamFile
{
    version     2.0;
    format      ascii;
    arch        "LSB;label=32;scalar=64";
    class       volScalarField;
    location    "0.024139";
    object      rho;
}
// * * * * * * * * * * * * * * * * * * * * * * * * * * * * * * * * * * * * * //

dimensions      [1 -3 0 0 0 0 0];

internalField   nonuniform List<scalar> 
100
(
0.50318
0.503211
0.503321
0.503385
0.503413
0.503356
0.503197
0.503032
0.502773
0.502549
0.50217
0.501877
0.501513
0.501072
0.500811
0.500117
0.499958
0.499108
0.498665
0.498022
0.497398
0.496952
0.496237
0.495989
0.49507
0.494335
0.492882
0.491549
0.489844
0.488366
0.486976
0.486282
0.486271
0.486767
0.486286
0.484542
0.483935
0.491968
0.511718
0.516412
0.510356
0.503893
0.497545
0.491374
0.481635
0.47018
0.464739
0.462156
0.459627
0.457817
0.459148
0.460555
0.460762
0.461043
0.46186
0.460419
0.458073
0.460769
0.466152
0.462503
0.450585
0.45231
0.474606
0.480318
0.449121
0.430173
0.455862
0.506243
0.498184
0.536544
0.893638
1.05335
1.03559
1.04595
1.03489
1.02648
1.04422
1.04474
1.08324
1.09815
1.09889
1.09964
1.07458
1.06099
1.05738
1.04593
1.06795
1.0874
1.10401
1.07296
1.00171
0.933973
0.894236
0.874248
0.864735
0.869946
0.879845
0.888537
0.898648
0.896983
)
;

boundaryField
{
    sides
    {
        type            calculated;
        value           nonuniform List<scalar> 2(0.896983 0.50318);
    }
    empty
    {
        type            empty;
    }
}


// ************************************************************************* //
