/*--------------------------------*- C++ -*----------------------------------*\
| =========                 |                                                 |
| \\      /  F ield         | OpenFOAM: The Open Source CFD Toolbox           |
|  \\    /   O peration     | Version:  2412                                  |
|   \\  /    A nd           | Website:  www.openfoam.com                      |
|    \\/     M anipulation  |                                                 |
\*---------------------------------------------------------------------------*/
FoamFile
{
    version     2.0;
    format      ascii;
    arch        "LSB;label=32;scalar=64";
    class       volScalarField;
    location    "0.024139";
    object      TTR;
}
// * * * * * * * * * * * * * * * * * * * * * * * * * * * * * * * * * * * * * //

dimensions      [0 0 0 1 0 0 0];

internalField   nonuniform List<scalar> 
100
(
238.659
238.663
238.496
238.497
238.318
238.326
238.255
238.353
238.189
238.441
237.886
238.702
237.277
239.251
236.449
239.858
235.778
240.006
235.597
239.579
235.811
238.963
236.209
238.298
236.47
237.644
236.473
236.953
236.198
236.355
235.925
236.027
235.88
236.013
235.841
235.784
235.985
237.328
239.552
239.982
239.156
238.576
238.031
236.433
234.493
234.59
234.221
232.109
231.248
232.413
232.67
232.276
232.702
232.698
231.592
231.934
234.388
233.61
228.773
229.363
238.415
240.187
226.011
217.693
234.586
255.182
243.541
208.826
206.909
266.162
299.525
273.669
340.772
276.167
313.127
310.847
286.303
324.894
293.611
313.622
314.672
303.677
314.438
306.587
303.681
311.274
298.915
294.188
295.005
325.785
371.577
410.246
416.218
428.341
419.792
426.996
419.654
425.715
420.625
424.007
)
;

boundaryField
{
    sides
    {
        type            zeroGradient;
    }
    empty
    {
        type            empty;
    }
}


// ************************************************************************* //
