/*--------------------------------*- C++ -*----------------------------------*\
| =========                 |                                                 |
| \\      /  F ield         | OpenFOAM: The Open Source CFD Toolbox           |
|  \\    /   O peration     | Version:  2412                                  |
|   \\  /    A nd           | Website:  www.openfoam.com                      |
|    \\/     M anipulation  |                                                 |
\*---------------------------------------------------------------------------*/
FoamFile
{
    version     2.0;
    format      ascii;
    arch        "LSB;label=32;scalar=64";
    class       volScalarField;
    location    "0.0502948";
    object      TTR;
}
// * * * * * * * * * * * * * * * * * * * * * * * * * * * * * * * * * * * * * //

dimensions      [0 0 0 1 0 0 0];

internalField   nonuniform List<scalar> 
100
(
318.011
303.347
325.304
313.206
320.323
310.045
311.187
314.134
315.202
319.772
278.995
252.154
251.677
251.362
250.597
253.13
254.344
259.598
258.286
261.046
257.597
256.761
251.695
254.166
252.052
255.14
255.348
260.048
259.707
261.365
260.418
260.783
259.937
260.615
260.288
260.237
259.539
259.923
260.192
261.31
262.532
263.307
263.757
263.419
262.571
262.703
263.446
266.957
270.972
272.292
272.858
272.994
270.814
266.025
263.116
262.256
262.264
262.341
262.406
262.416
262.678
263.356
264.258
264.9
265.872
266.447
267.502
267.751
267.842
266.599
265.998
265.819
264.731
266.114
263.843
266.36
262.593
265.566
262.885
265.141
267.057
269.22
281.783
290.785
314.538
331.232
353.189
360.365
365.386
368.729
369.028
371.729
368.985
372.047
368.002
370.731
367.001
368.959
366.972
367.339
)
;

boundaryField
{
    sides
    {
        type            zeroGradient;
    }
    empty
    {
        type            empty;
    }
}


// ************************************************************************* //
