/*--------------------------------*- C++ -*----------------------------------*\
| =========                 |                                                 |
| \\      /  F ield         | OpenFOAM: The Open Source CFD Toolbox           |
|  \\    /   O peration     | Version:  2412                                  |
|   \\  /    A nd           | Website:  www.openfoam.com                      |
|    \\/     M anipulation  |                                                 |
\*---------------------------------------------------------------------------*/
FoamFile
{
    version     2.0;
    format      ascii;
    arch        "LSB;label=32;scalar=64";
    class       volScalarField;
    location    "0.0275995";
    object      rho;
}
// * * * * * * * * * * * * * * * * * * * * * * * * * * * * * * * * * * * * * //

dimensions      [1 -3 0 0 0 0 0];

internalField   nonuniform List<scalar> 
100
(
0.415211
0.415186
0.41521
0.415228
0.415221
0.415246
0.415178
0.415162
0.41498
0.414892
0.414717
0.414492
0.414455
0.414032
0.41405
0.413618
0.413508
0.413219
0.412892
0.412666
0.41214
0.411915
0.411347
0.411075
0.410455
0.410065
0.409473
0.409035
0.40846
0.40796
0.407382
0.406854
0.406251
0.405618
0.404914
0.404163
0.403418
0.40286
0.402521
0.402061
0.401494
0.401198
0.400694
0.39936
0.398338
0.398669
0.398045
0.396109
0.395661
0.40054
0.411604
0.415975
0.416172
0.416629
0.416325
0.416226
0.431447
0.465143
0.468943
0.465283
0.471194
0.477302
0.608842
0.984829
1.04619
1.05207
1.07224
1.08481
1.09654
1.08976
1.07991
1.07949
1.05916
1.07016
1.05907
1.05011
1.06279
1.07256
1.09213
1.08135
1.05869
1.04478
1.03715
1.05419
1.0849
1.10476
1.11641
1.11218
1.08236
1.03148
0.966984
0.921624
0.903306
0.894589
0.88489
0.880495
0.878142
0.88239
0.892487
0.898617
)
;

boundaryField
{
    sides
    {
        type            calculated;
        value           nonuniform List<scalar> 2(0.898617 0.415211);
    }
    empty
    {
        type            empty;
    }
}


// ************************************************************************* //
