/*--------------------------------*- C++ -*----------------------------------*\
| =========                 |                                                 |
| \\      /  F ield         | OpenFOAM: The Open Source CFD Toolbox           |
|  \\    /   O peration     | Version:  2412                                  |
|   \\  /    A nd           | Website:  www.openfoam.com                      |
|    \\/     M anipulation  |                                                 |
\*---------------------------------------------------------------------------*/
FoamFile
{
    version     2.0;
    format      ascii;
    arch        "LSB;label=32;scalar=64";
    class       volVectorField;
    location    "0.0176599";
    object      U;
}
// * * * * * * * * * * * * * * * * * * * * * * * * * * * * * * * * * * * * * //

dimensions      [0 1 -1 0 0 0 0];

internalField   nonuniform List<vector> 
100
(
(3.94193 0 0)
(12.5705 0 0)
(21.6532 0 0)
(30.9719 0 0)
(41.6515 0 0)
(53.6253 0 0)
(66.6459 0 0)
(79.2466 0 0)
(89.7595 0 0)
(98.5109 0 0)
(104.741 0 0)
(108.877 0 0)
(112.629 0 0)
(116.827 0 0)
(121.54 0 0)
(126.506 0 0)
(131.386 0 0)
(136.285 0 0)
(140.941 0 0)
(145.895 0 0)
(150.36 0 0)
(155.47 0 0)
(159.789 0 0)
(164.939 0 0)
(169.411 0 0)
(174.282 0 0)
(179.103 0 0)
(183.619 0 0)
(188.602 0 0)
(192.999 0 0)
(198.061 0 0)
(202.434 0 0)
(207.466 0 0)
(211.999 0 0)
(216.985 0 0)
(221.582 0 0)
(226.477 0 0)
(231.219 0 0)
(236.097 0 0)
(240.846 0 0)
(245.578 0 0)
(250.293 0 0)
(255.109 0 0)
(259.843 0 0)
(264.254 0 0)
(268.641 0 0)
(273.303 0 0)
(277.253 0 0)
(280.325 0 0)
(283.109 0 0)
(284.56 0 0)
(284.578 0 0)
(284.166 0 0)
(282.346 0 0)
(281.178 0 0)
(283.295 0 0)
(286.36 0 0)
(285.613 0 0)
(278.894 0 0)
(277.037 0 0)
(286.239 0 0)
(290.192 0 0)
(285.685 0 0)
(275.439 0 0)
(274.023 0 0)
(289.096 0 0)
(291.85 0 0)
(285.587 0 0)
(273.948 0 0)
(272.988 0 0)
(287.122 0 0)
(291.818 0 0)
(287.918 0 0)
(274.597 0 0)
(274.648 0 0)
(280.183 0 0)
(289.851 0 0)
(289.483 0 0)
(280.028 0 0)
(274.039 0 0)
(276.357 0 0)
(284.054 0 0)
(268.248 0 0)
(91.3159 0 0)
(10.5967 0 0)
(16.3042 0 0)
(30.521 0 0)
(15.2479 0 0)
(4.68197 0 0)
(4.67949 0 0)
(6.09515 0 0)
(13.9669 0 0)
(17.2753 0 0)
(19.1163 0 0)
(20.5066 0 0)
(22.3757 0 0)
(23.8318 0 0)
(22.2227 0 0)
(18.6366 0 0)
(4.8718 0 0)
)
;

boundaryField
{
    sides
    {
        type            fixedValue;
        value           uniform (0 0 0);
    }
    empty
    {
        type            empty;
    }
}


// ************************************************************************* //
