/*--------------------------------*- C++ -*----------------------------------*\
| =========                 |                                                 |
| \\      /  F ield         | OpenFOAM: The Open Source CFD Toolbox           |
|  \\    /   O peration     | Version:  2412                                  |
|   \\  /    A nd           | Website:  www.openfoam.com                      |
|    \\/     M anipulation  |                                                 |
\*---------------------------------------------------------------------------*/
FoamFile
{
    version     2.0;
    format      ascii;
    arch        "LSB;label=32;scalar=64";
    class       volScalarField;
    location    "0.0305295";
    object      rho;
}
// * * * * * * * * * * * * * * * * * * * * * * * * * * * * * * * * * * * * * //

dimensions      [1 -3 0 0 0 0 0];

internalField   nonuniform List<scalar> 
100
(
0.360618
0.360618
0.360635
0.360695
0.360712
0.360801
0.36076
0.360804
0.360711
0.360606
0.360534
0.360208
0.360218
0.359824
0.359771
0.359509
0.359338
0.359196
0.358879
0.358772
0.358383
0.358249
0.357844
0.357654
0.35728
0.357038
0.356664
0.356358
0.355974
0.355636
0.355266
0.354907
0.354523
0.354152
0.35379
0.353417
0.353038
0.352708
0.352388
0.351906
0.351474
0.351479
0.351429
0.351194
0.351174
0.352092
0.354082
0.355949
0.35744
0.360507
0.365028
0.367795
0.368925
0.370227
0.375912
0.473993
0.845474
0.944909
0.943007
0.937844
0.932428
0.939934
0.951363
0.963345
0.960869
0.953519
0.968784
1.00041
1.0425
1.07756
1.09533
1.09882
1.08308
1.08027
1.07543
1.08121
1.08745
1.07552
1.06298
1.04876
1.04812
1.05308
1.0631
1.07563
1.08008
1.0828
1.09035
1.09742
1.09547
1.05942
0.989841
0.923476
0.88584
0.874436
0.882261
0.892676
0.898694
0.895484
0.88682
0.877025
)
;

boundaryField
{
    sides
    {
        type            calculated;
        value           nonuniform List<scalar> 2(0.877025 0.360618);
    }
    empty
    {
        type            empty;
    }
}


// ************************************************************************* //
