/*--------------------------------*- C++ -*----------------------------------*\
| =========                 |                                                 |
| \\      /  F ield         | OpenFOAM: The Open Source CFD Toolbox           |
|  \\    /   O peration     | Version:  2412                                  |
|   \\  /    A nd           | Website:  www.openfoam.com                      |
|    \\/     M anipulation  |                                                 |
\*---------------------------------------------------------------------------*/
FoamFile
{
    version     2.0;
    format      ascii;
    arch        "LSB;label=32;scalar=64";
    class       volScalarField;
    location    "0.0130015";
    object      p;
}
// * * * * * * * * * * * * * * * * * * * * * * * * * * * * * * * * * * * * * //

dimensions      [1 -1 -2 0 0 0 0];

internalField   nonuniform List<scalar> 
100
(
100000
100000
100000
100000
100000
99999.3
99947.6
99145.1
96100.2
91758.4
88030
85191.9
82872.3
80786.4
78800.4
76865.3
74968.6
73109
71286.7
69502.8
67753.5
66045.6
64359.1
62740
61085.5
59618
57902.1
56746
54777.8
54111.2
51778.9
51495.5
49135.7
48794.2
46772.1
46205.2
44498.6
43691.3
42308.9
41355.8
40133.5
39105.2
38048.1
37030
36052.4
35146.1
34315.6
33299.6
32530.9
32074.9
31827.6
31847.4
31543
31363.2
31684.8
32417.5
32469.5
31210.2
30906.8
31760.3
32743
32664.5
31086.3
30868.2
31711.4
32739
32659.6
31516.7
30952.6
31353.7
32495.8
32516.6
32242.1
31151.5
31281.7
31516.4
32600.9
32804.8
32321.2
32063.6
31904.6
31355.9
31719.5
31905.8
31933.9
32187.5
32301.4
31938
31726
31859.5
31842.5
32380.3
32622.3
59604.5
90113.1
96178.1
85861.7
87278.4
82894.2
88327.3
)
;

boundaryField
{
    sides
    {
        type            zeroGradient;
    }
    empty
    {
        type            empty;
    }
}


// ************************************************************************* //
