/*--------------------------------*- C++ -*----------------------------------*\
| =========                 |                                                 |
| \\      /  F ield         | OpenFOAM: The Open Source CFD Toolbox           |
|  \\    /   O peration     | Version:  2412                                  |
|   \\  /    A nd           | Website:  www.openfoam.com                      |
|    \\/     M anipulation  |                                                 |
\*---------------------------------------------------------------------------*/
FoamFile
{
    version     2.0;
    format      ascii;
    arch        "LSB;label=32;scalar=64";
    class       volScalarField;
    location    "0.0295135";
    object      rho;
}
// * * * * * * * * * * * * * * * * * * * * * * * * * * * * * * * * * * * * * //

dimensions      [1 -3 0 0 0 0 0];

internalField   nonuniform List<scalar> 
100
(
0.377872
0.377901
0.377968
0.378055
0.378085
0.37815
0.378083
0.378089
0.377928
0.377803
0.377675
0.377367
0.377385
0.377006
0.377029
0.376744
0.376593
0.376404
0.376073
0.375938
0.375506
0.375344
0.374885
0.374677
0.374248
0.37397
0.37352
0.373158
0.372713
0.37233
0.37189
0.371463
0.37101
0.370572
0.370126
0.36969
0.369288
0.368847
0.368287
0.367813
0.367639
0.36733
0.366665
0.366381
0.366653
0.366858
0.366863
0.368149
0.371986
0.376542
0.379031
0.380793
0.384182
0.388135
0.391378
0.393044
0.394643
0.39982
0.611751
0.944164
1.00335
0.995947
0.987286
0.99063
1.01792
1.04844
1.087
1.08854
1.0855
1.07364
1.06573
1.07476
1.07193
1.07581
1.06657
1.05599
1.05661
1.06258
1.08463
1.08752
1.08347
1.07207
1.05392
1.05237
1.0574
1.07502
1.09195
1.09699
1.08497
1.04536
0.989881
0.941558
0.912728
0.89983
0.887916
0.87744
0.87268
0.875374
0.885792
0.895297
)
;

boundaryField
{
    sides
    {
        type            calculated;
        value           nonuniform List<scalar> 2(0.895297 0.377872);
    }
    empty
    {
        type            empty;
    }
}


// ************************************************************************* //
