/*--------------------------------*- C++ -*----------------------------------*\
| =========                 |                                                 |
| \\      /  F ield         | OpenFOAM: The Open Source CFD Toolbox           |
|  \\    /   O peration     | Version:  2412                                  |
|   \\  /    A nd           | Website:  www.openfoam.com                      |
|    \\/     M anipulation  |                                                 |
\*---------------------------------------------------------------------------*/
FoamFile
{
    version     2.0;
    format      ascii;
    arch        "LSB;label=32;scalar=64";
    class       volVectorField;
    location    "2.08587e-05";
    object      U;
}
// * * * * * * * * * * * * * * * * * * * * * * * * * * * * * * * * * * * * * //

dimensions      [0 1 -1 0 0 0 0];

internalField   nonuniform List<vector> 
1800
(
(2.9 -1.81403e-14 0)
(2.9 4.18347e-14 0)
(2.9 3.60167e-14 0)
(2.9 -1.4368e-14 0)
(2.9 7.37195e-15 0)
(2.9 -9.70653e-15 0)
(2.9 -2.79617e-14 0)
(2.9 -1.52577e-14 0)
(2.9 -1.53387e-14 0)
(2.9 1.69723e-15 0)
(2.9 8.1564e-15 0)
(2.9 -2.46741e-14 0)
(2.9 -2.94329e-14 0)
(2.9 -1.32704e-14 0)
(2.9 -3.29922e-14 0)
(2.9 -5.13009e-15 0)
(2.9 1.10498e-14 0)
(2.9 -8.17867e-16 0)
(2.9 -1.83598e-14 0)
(2.9 -9.37481e-16 0)
(2.9 -2.22839e-14 0)
(2.9 -4.06018e-15 0)
(2.9 -5.51718e-15 0)
(2.9 -1.68067e-15 0)
(2.9 5.92061e-17 0)
(2.9 -1.01765e-14 0)
(2.9 -3.11101e-15 0)
(2.9 -6.39971e-15 0)
(2.9 2.36969e-14 0)
(2.9 3.12697e-14 0)
(2.9 -9.52597e-15 0)
(2.9 2.18054e-14 0)
(2.9 -3.22141e-15 0)
(2.9 -2.25583e-14 0)
(2.9 3.32802e-14 0)
(2.9 1.03626e-15 0)
(2.9 -5.45698e-15 0)
(2.9 1.26104e-14 0)
(2.9 -2.48348e-15 0)
(2.9 -1.32473e-15 0)
(2.9 7.90091e-15 0)
(2.9 2.42861e-14 0)
(2.9 -4.38812e-15 0)
(2.9 -2.87672e-15 0)
(2.9 -2.082e-14 0)
(2.9 5.0866e-16 0)
(2.9 4.45081e-15 0)
(2.9 3.35369e-14 0)
(2.9 -7.09761e-15 0)
(2.9 1.06055e-14 0)
(2.9 1.30287e-14 0)
(2.9 -1.99174e-14 0)
(2.9 5.83714e-15 0)
(2.9 -1.07064e-14 0)
(2.9 -1.99409e-15 0)
(2.9 -1.59915e-14 0)
(2.9 -1.749e-14 0)
(2.9 1.69102e-15 0)
(2.9 -1.8823e-14 0)
(2.9 -2.27263e-14 0)
(2.9 -4.03811e-14 0)
(2.9 1.10938e-14 0)
(2.9 2.00665e-14 0)
(2.9 -2.9531e-14 0)
(2.9 -1.70272e-14 0)
(2.9 -8.06059e-14 0)
(2.9 -6.85046e-14 0)
(2.9 -4.15052e-14 0)
(2.9 -1.57568e-14 0)
(2.9 -1.17944e-15 0)
(2.9 3.27036e-15 0)
(2.9 -1.78935e-14 0)
(2.9 -1.06765e-14 0)
(2.9 2.40095e-15 0)
(2.9 -2.08046e-14 0)
(2.9 -1.93624e-15 0)
(2.9 1.2234e-14 0)
(2.9 -3.87754e-15 0)
(2.9 -2.64939e-14 0)
(2.9 -2.07522e-14 0)
(2.9 -3.5131e-14 0)
(2.9 -2.23409e-14 0)
(2.9 3.21988e-15 0)
(2.9 -1.79722e-14 0)
(2.9 -2.11608e-14 0)
(2.9 3.00429e-15 0)
(2.9 -1.80295e-14 0)
(2.9 -3.31015e-14 0)
(2.9 2.91289e-14 0)
(2.9 1.47807e-14 0)
(2.9 -1.20105e-14 0)
(2.9 2.27364e-14 0)
(2.9 -2.87983e-14 0)
(2.9 -5.01384e-14 0)
(2.9 3.07523e-14 0)
(2.9 -9.48193e-15 0)
(2.9 3.5533e-15 0)
(2.9 4.92125e-14 0)
(2.9 -4.74429e-16 0)
(2.9 -1.62113e-14 0)
(2.9 -9.28528e-15 0)
(2.9 1.98305e-14 0)
(2.9 -3.32879e-14 0)
(2.9 -1.83417e-14 0)
(2.9 -1.92668e-14 0)
(2.9 -2.11242e-15 0)
(2.9 2.06005e-14 0)
(2.9 1.92775e-14 0)
(2.9 1.88438e-14 0)
(2.9 4.69026e-14 0)
(2.9 -3.94315e-15 0)
(2.9 -1.3437e-14 0)
(2.9 3.1159e-14 0)
(2.9 -2.8222e-14 0)
(2.9 -1.8592e-15 0)
(2.9 7.84195e-16 0)
(2.9 -2.776e-14 0)
(2.9 1.37875e-14 0)
(2.9 3.9097e-15 0)
(2.9 -8.6957e-15 0)
(2.9 -3.27425e-15 0)
(2.9 1.07768e-14 0)
(2.9 8.54974e-15 0)
(2.9 2.96238e-14 0)
(2.9 8.03882e-15 0)
(2.9 -5.20528e-14 0)
(2.9 -2.70307e-14 0)
(2.9 -2.17366e-14 0)
(2.9 3.61113e-15 0)
(2.9 -3.89608e-14 0)
(2.9 1.09408e-14 0)
(2.9 6.61227e-16 0)
(2.9 -2.2867e-14 0)
(2.9 8.67732e-16 0)
(2.9 6.72156e-15 0)
(2.9 4.38762e-14 0)
(2.9 2.14508e-14 0)
(2.9 1.17704e-15 0)
(2.9 -6.32618e-15 0)
(2.9 -6.00946e-15 0)
(2.9 1.30416e-14 0)
(2.9 -1.79597e-14 0)
(2.9 1.80315e-14 0)
(2.9 8.70941e-15 0)
(2.9 -3.35215e-14 0)
(2.9 -1.42498e-14 0)
(2.9 -4.63104e-14 0)
(2.9 -6.01819e-15 0)
(2.9 -2.76928e-15 0)
(2.9 -1.92193e-14 0)
(2.9 1.57055e-14 0)
(2.9 5.69569e-15 0)
(2.9 -2.83271e-14 0)
(2.9 -1.71991e-14 0)
(2.9 -3.63105e-14 0)
(2.9 -3.29373e-14 0)
(2.9 1.54319e-14 0)
(2.9 1.77051e-14 0)
(2.9 -2.96747e-14 0)
(2.9 1.06449e-15 0)
(2.9 -7.32606e-15 0)
(2.9 -1.7649e-14 0)
(2.9 -1.49091e-14 0)
(2.9 -1.36237e-14 0)
(2.9 3.49234e-14 0)
(2.9 -1.3704e-14 0)
(2.9 1.82246e-14 0)
(2.9 -5.72686e-15 0)
(2.9 1.78397e-14 0)
(2.9 -3.71867e-15 0)
(2.9 -1.14623e-14 0)
(2.9 -3.46255e-15 0)
(2.9 1.05624e-14 0)
(2.9 3.6679e-15 0)
(2.9 -8.55247e-15 0)
(2.9 -1.06326e-14 0)
(2.9 1.24069e-14 0)
(2.9 2.55653e-14 0)
(2.9 3.0597e-14 0)
(2.9 -3.2494e-14 0)
(2.9 -2.2715e-15 0)
(2.9 -8.27397e-15 0)
(2.9 7.88311e-15 0)
(2.9 -1.0113e-14 0)
(2.9 -1.42553e-14 0)
(2.9 -1.7755e-14 0)
(2.9 -1.8272e-14 0)
(2.9 -1.51751e-14 0)
(2.9 -2.34113e-14 0)
(2.9 -1.03982e-14 0)
(2.9 2.93002e-14 0)
(2.9 -7.20912e-15 0)
(2.9 1.60408e-14 0)
(2.9 -3.44518e-15 0)
(2.9 4.35764e-15 0)
(2.9 2.38867e-14 0)
(2.9 6.53866e-16 0)
(2.9 5.57636e-15 0)
(2.9 1.85516e-14 0)
(2.9 -8.19417e-15 0)
(2.9 3.46854e-14 0)
(2.9 2.7103e-14 0)
(2.9 -1.24817e-14 0)
(2.9 6.04737e-15 0)
(2.9 1.3866e-14 0)
(2.9 -3.00199e-15 0)
(2.9 1.44412e-15 0)
(2.9 8.18385e-15 0)
(2.9 -2.81562e-14 0)
(2.9 8.32422e-16 0)
(2.9 4.12612e-15 0)
(2.9 1.05295e-14 0)
(2.9 -4.21402e-15 0)
(2.9 -1.48741e-15 0)
(2.9 -2.10672e-15 0)
(2.9 3.14025e-14 0)
(2.9 8.3739e-15 0)
(2.9 1.46104e-14 0)
(2.9 1.45608e-15 0)
(2.9 -7.27125e-15 0)
(2.9 -5.94928e-15 0)
(2.9 -1.55638e-14 0)
(2.9 3.93511e-15 0)
(2.9 -9.83912e-15 0)
(2.9 6.86995e-16 0)
(2.9 -2.38785e-14 0)
(2.9 -4.43572e-15 0)
(2.9 -2.28196e-15 0)
(2.9 -1.50947e-14 0)
(2.9 -1.20144e-14 0)
(2.9 -1.40427e-14 0)
(2.9 -2.474e-15 0)
(2.9 2.44104e-14 0)
(2.9 1.49558e-14 0)
(2.9 -1.35345e-14 0)
(2.9 1.75505e-14 0)
(2.9 1.85921e-14 0)
(2.9 3.17349e-15 0)
(2.9 8.5534e-16 0)
(2.9 1.27052e-14 0)
(2.9 -8.06905e-15 0)
(2.9 -5.47947e-14 0)
(2.9 -3.12858e-15 0)
(2.9 4.69749e-15 0)
(2.9 1.11337e-15 0)
(2.9 -2.74729e-14 0)
(2.9 -1.367e-14 0)
(2.9 -4.30747e-14 0)
(2.9 1.35505e-14 0)
(2.9 1.96271e-14 0)
(2.9 6.51059e-15 0)
(2.9 -6.22077e-15 0)
(2.9 2.74465e-14 0)
(2.9 8.75113e-17 0)
(2.9 2.10491e-14 0)
(2.9 -2.39797e-14 0)
(2.9 -2.49451e-14 0)
(2.9 4.20621e-14 0)
(2.9 4.59546e-14 0)
(2.9 2.31936e-14 0)
(2.9 2.05929e-14 0)
(2.9 2.87036e-14 0)
(2.9 -1.91051e-14 0)
(2.9 8.27034e-15 0)
(2.9 1.70935e-14 0)
(2.9 1.12881e-14 0)
(2.9 5.60389e-14 0)
(2.9 -9.2904e-15 0)
(2.9 -3.94164e-14 0)
(2.9 2.71914e-14 0)
(2.9 5.24115e-15 0)
(2.9 3.13759e-14 0)
(2.9 3.84113e-14 0)
(2.9 1.05027e-14 0)
(2.9 -1.49628e-14 0)
(2.9 9.5094e-15 0)
(2.9 9.73058e-15 0)
(2.9 -4.34025e-15 0)
(2.9 4.03592e-14 0)
(2.9 -6.2099e-15 0)
(2.9 -5.61543e-15 0)
(2.9 -3.60053e-14 0)
(2.9 -2.08733e-15 0)
(2.9 -2.11875e-14 0)
(2.9 1.38216e-15 0)
(2.9 -2.06949e-14 0)
(2.9 -2.27788e-14 0)
(2.9 -3.85795e-15 0)
(2.9 -1.39679e-14 0)
(2.9 -1.80847e-15 0)
(2.9 1.59224e-14 0)
(2.9 -7.24459e-15 0)
(2.9 -1.56663e-14 0)
(2.9 1.80107e-14 0)
(2.9 2.74606e-14 0)
(2.9 2.64039e-14 0)
(2.9 -9.54983e-15 0)
(2.9 2.17591e-14 0)
(2.9 -2.07502e-14 0)
(2.9 6.02463e-14 0)
(2.9 1.46085e-14 0)
(2.9 -1.48468e-14 0)
(2.9 -1.63687e-14 0)
(2.9 2.72588e-14 0)
(2.9 3.00997e-14 0)
(2.9 1.76335e-14 0)
(2.9 4.8757e-15 0)
(2.9 -1.74731e-14 0)
(2.9 4.29647e-15 0)
(2.9 -2.17405e-15 0)
(2.9 -3.485e-14 0)
(2.9 4.94501e-15 0)
(2.9 1.57807e-14 0)
(2.9 1.99132e-14 0)
(2.9 -8.66322e-15 0)
(2.9 5.76468e-15 0)
(2.9 -4.16576e-15 0)
(2.9 1.42398e-14 0)
(2.9 2.00629e-14 0)
(2.9 -1.56945e-15 0)
(2.9 -1.93476e-14 0)
(2.9 5.13623e-16 0)
(2.9 1.48574e-14 0)
(2.9 -4.29387e-15 0)
(2.9 -2.27643e-15 0)
(2.9 -4.38443e-15 0)
(2.9 4.6094e-14 0)
(2.9 -4.32282e-15 0)
(2.9 -6.0853e-15 0)
(2.9 7.92124e-15 0)
(2.9 -9.86903e-15 0)
(2.9 -1.01747e-14 0)
(2.9 4.36018e-15 0)
(2.9 1.44175e-14 0)
(2.9 7.29458e-15 0)
(2.9 -1.06444e-14 0)
(2.9 -4.64637e-14 0)
(2.9 -1.80102e-14 0)
(2.9 9.93685e-15 0)
(2.9 1.69132e-14 0)
(2.9 -1.48453e-14 0)
(2.9 1.54377e-14 0)
(2.9 -3.22566e-15 0)
(2.9 1.63417e-14 0)
(2.9 1.96757e-14 0)
(2.9 2.58154e-14 0)
(2.9 1.47523e-14 0)
(2.9 9.65008e-15 0)
(2.9 -4.78237e-15 0)
(2.9 -3.37062e-15 0)
(2.9 2.15749e-14 0)
(2.9 -3.24207e-14 0)
(2.9 -5.68893e-16 0)
(2.9 2.19099e-14 0)
(2.9 1.09686e-14 0)
(2.9 3.55877e-15 0)
(2.9 1.51492e-14 0)
(2.9 2.12306e-14 0)
(2.9 -2.09647e-14 0)
(2.9 -1.25748e-14 0)
(2.9 -7.96052e-15 0)
(2.9 2.40301e-14 0)
(2.9 -2.83061e-14 0)
(2.9 -3.92094e-15 0)
(2.9 1.83228e-14 0)
(2.9 3.34482e-14 0)
(2.9 2.32806e-14 0)
(2.9 1.80947e-14 0)
(2.9 5.76481e-15 0)
(2.9 -6.50707e-15 0)
(2.9 -1.44946e-14 0)
(2.9 -1.02298e-14 0)
(2.9 -1.27116e-15 0)
(2.9 -5.44563e-15 0)
(2.9 -3.15175e-15 0)
(2.9 1.08687e-15 0)
(2.9 -1.14851e-14 0)
(2.9 -1.50219e-16 0)
(2.9 -1.89753e-14 0)
(2.9 1.71034e-14 0)
(2.9 -1.31751e-14 0)
(2.9 -2.41415e-14 0)
(2.9 3.31196e-15 0)
(2.9 -1.69856e-14 0)
(2.9 -4.41463e-15 0)
(2.9 1.17384e-14 0)
(2.9 1.06032e-14 0)
(2.9 -7.24297e-15 0)
(2.9 2.81602e-14 0)
(2.9 -2.32895e-15 0)
(2.9 -1.53124e-14 0)
(2.9 -8.19549e-15 0)
(2.9 -1.68568e-14 0)
(2.9 -9.17798e-15 0)
(2.9 5.41354e-15 0)
(2.9 -4.20044e-14 0)
(2.9 -2.2298e-14 0)
(2.9 -1.9659e-14 0)
(2.9 2.05854e-15 0)
(2.9 -2.23287e-14 0)
(2.9 -7.0447e-15 0)
(2.9 7.7449e-15 0)
(2.9 1.43988e-14 0)
(2.9 4.77068e-14 0)
(2.9 9.30223e-15 0)
(2.9 -7.42978e-15 0)
(2.9 -2.61917e-14 0)
(2.9 -1.23974e-14 0)
(2.9 -9.00638e-15 0)
(2.9 1.0531e-14 0)
(2.9 -1.58186e-15 0)
(2.9 9.83215e-15 0)
(2.9 2.44055e-14 0)
(2.9 -1.16583e-14 0)
(2.9 -2.63135e-14 0)
(2.9 7.77818e-16 0)
(2.9 -4.08848e-16 0)
(2.9 -1.02889e-14 0)
(2.9 -1.59052e-14 0)
(2.9 -1.40576e-14 0)
(2.9 -3.44766e-17 0)
(2.9 5.12689e-14 0)
(2.9 -3.54521e-14 0)
(2.9 -2.5132e-15 0)
(2.9 -6.19067e-15 0)
(2.9 3.30711e-14 0)
(2.9 6.54164e-14 0)
(2.9 3.38176e-14 0)
(2.9 2.63365e-14 0)
(2.9 5.04896e-15 0)
(2.9 -3.51286e-14 0)
(2.9 -9.36988e-15 0)
(2.9 1.87483e-16 0)
(2.9 -2.09617e-14 0)
(2.9 -4.64741e-15 0)
(2.9 3.53258e-14 0)
(2.9 3.53882e-14 0)
(2.9 -4.61335e-15 0)
(2.9 -1.26991e-15 0)
(2.9 -1.37686e-14 0)
(2.9 9.93759e-15 0)
(2.9 1.03502e-15 0)
(2.9 2.28603e-14 0)
(2.9 -4.90624e-15 0)
(2.9 5.44676e-16 0)
(2.9 -1.62682e-14 0)
(2.9 7.34632e-15 0)
(2.9 5.52487e-15 0)
(2.9 4.47645e-14 0)
(2.9 2.36882e-15 0)
(2.9 -1.89995e-15 0)
(2.9 3.35716e-14 0)
(2.9 2.48207e-15 0)
(2.9 3.08868e-15 0)
(2.9 1.35973e-15 0)
(2.9 -3.63176e-14 0)
(2.9 6.41475e-16 0)
(2.9 2.23984e-14 0)
(2.9 -1.22902e-14 0)
(2.9 -5.07344e-14 0)
(2.9 -1.84429e-14 0)
(2.9 1.91955e-14 0)
(2.9 3.57012e-14 0)
(2.9 4.02865e-14 0)
(2.9 2.26591e-14 0)
(2.9 -3.92054e-15 0)
(2.9 2.27711e-15 0)
(2.9 9.76402e-16 0)
(2.9 2.17411e-14 0)
(2.9 1.20981e-14 0)
(2.9 -5.77898e-16 0)
(2.9 2.4265e-14 0)
(2.9 -1.57039e-14 0)
(2.9 -1.47517e-14 0)
(2.9 -8.8763e-15 0)
(2.9 -2.4723e-14 0)
(2.9 -2.16082e-14 0)
(2.9 -2.63367e-15 0)
(2.9 -2.54011e-14 0)
(2.9 3.19685e-15 0)
(2.9 -6.78162e-15 0)
(2.9 1.39035e-14 0)
(2.9 -6.09282e-15 0)
(2.9 -4.36253e-16 0)
(2.9 -2.29959e-14 0)
(2.9 8.66513e-15 0)
(2.9 2.31599e-14 0)
(2.9 -7.34181e-15 0)
(2.9 -9.84434e-15 0)
(2.9 -4.15225e-15 0)
(2.9 -9.99814e-15 0)
(2.9 -3.07873e-14 0)
(2.9 -2.75669e-14 0)
(2.9 -9.27581e-15 0)
(2.9 -2.14393e-14 0)
(2.9 -1.73752e-14 0)
(2.9 -6.77463e-16 0)
(2.9 9.73932e-15 0)
(2.9 -1.46307e-14 0)
(2.9 -5.53287e-14 0)
(2.9 1.40484e-14 0)
(2.9 2.8056e-14 0)
(2.9 -3.46668e-15 0)
(2.9 1.62782e-14 0)
(2.9 5.8636e-15 0)
(2.9 -3.65483e-14 0)
(2.9 -9.61526e-15 0)
(2.9 2.02179e-14 0)
(2.9 2.26269e-14 0)
(2.9 -9.39951e-15 0)
(2.9 4.26371e-15 0)
(2.9 -1.04256e-14 0)
(2.9 2.25931e-14 0)
(2.9 2.2556e-14 0)
(2.9 -3.95256e-14 0)
(2.9 2.50046e-14 0)
(2.9 2.72977e-14 0)
(2.9 3.06492e-14 0)
(2.9 2.26925e-14 0)
(2.9 4.22145e-14 0)
(2.9 -8.31236e-16 0)
(2.9 3.44506e-14 0)
(2.9 1.23248e-14 0)
(2.9 1.60427e-14 0)
(2.9 -7.302e-15 0)
(2.9 2.03575e-14 0)
(2.9 -1.85945e-15 0)
(2.9 1.16843e-14 0)
(2.9 1.20482e-14 0)
(2.9 -3.35825e-14 0)
(2.9 1.09179e-14 0)
(2.9 2.50806e-14 0)
(2.9 -2.80363e-14 0)
(2.9 3.44022e-15 0)
(2.9 2.90142e-14 0)
(2.9 -1.52463e-14 0)
(2.9 4.67836e-15 0)
(2.9 -3.65038e-16 0)
(2.9 -2.80095e-15 0)
(2.9 8.67887e-15 0)
(2.9 -3.66587e-14 0)
(2.9 -1.86334e-14 0)
(2.9 6.61085e-16 0)
(2.9 -9.98616e-15 0)
(2.9 4.99377e-15 0)
(2.9 -6.69863e-16 0)
(2.9 -7.34551e-15 0)
(2.9 -2.53505e-15 0)
(2.9 -1.00849e-14 0)
(2.9 -1.63047e-14 0)
(2.9 2.692e-14 0)
(2.9 -2.18457e-14 0)
(2.9 -5.17109e-14 0)
(2.9 -1.44573e-14 0)
(2.9 -2.73117e-14 0)
(2.9 -1.94125e-14 0)
(2.9 -1.83454e-15 0)
(2.9 4.87303e-15 0)
(2.9 -8.21091e-16 0)
(2.9 -1.218e-14 0)
(2.9 -1.29387e-14 0)
(2.9 1.03337e-14 0)
(2.9 -1.81053e-15 0)
(2.9 1.27445e-15 0)
(2.9 -1.69008e-14 0)
(2.9 1.80167e-14 0)
(2.9 -1.1748e-14 0)
(2.9 2.2152e-14 0)
(2.9 -7.30951e-15 0)
(2.9 3.24376e-15 0)
(2.9 4.17793e-15 0)
(2.9 -8.25212e-15 0)
(2.9 1.6267e-14 0)
(2.9 4.25031e-15 0)
(2.9 -1.17061e-14 0)
(2.9 2.25036e-14 0)
(2.9 -3.75902e-15 0)
(2.9 -3.75316e-16 0)
(2.9 3.28518e-15 0)
(2.9 4.29348e-14 0)
(2.9 -1.8531e-15 0)
(2.9 -3.22129e-16 0)
(2.9 -4.05097e-15 0)
(2.9 -2.82407e-14 0)
(2.9 -1.81572e-14 0)
(2.9 1.47307e-14 0)
(2.9 -1.72883e-14 0)
(2.9 -8.49649e-15 0)
(2.9 -1.23054e-14 0)
(2.9 -4.90597e-15 0)
(2.9 -1.77225e-14 0)
(2.9 1.09575e-14 0)
(2.9 5.50742e-15 0)
(2.9 -7.87455e-16 0)
(2.9 2.14076e-14 0)
(2.9 -1.56808e-14 0)
(2.9 1.4876e-15 0)
(2.9 -2.83451e-14 0)
(2.9 1.33221e-15 0)
(2.9 1.00023e-14 0)
(2.9 -2.15362e-14 0)
(2.9 -3.0205e-14 0)
(2.9 1.07628e-14 0)
(2.9 -6.82578e-15 0)
(2.9 -1.45556e-14 0)
(2.9 2.25192e-15 0)
(2.9 -5.14415e-15 0)
(2.9 3.06782e-14 0)
(2.9 2.52157e-14 0)
(2.9 9.94243e-15 0)
(2.9 5.8699e-15 0)
(2.9 2.4973e-14 0)
(2.9 7.23244e-15 0)
(2.9 5.69301e-16 0)
(2.9 2.6367e-14 0)
(2.9 1.5284e-14 0)
(2.9 -2.39501e-15 0)
(2.9 2.11988e-14 0)
(2.9 2.38938e-14 0)
(2.9 -3.20253e-15 0)
(2.9 -2.03878e-14 0)
(2.9 -1.59309e-14 0)
(2.9 -2.32271e-14 0)
(2.9 5.01661e-15 0)
(2.9 -2.02263e-14 0)
(2.9 2.35293e-14 0)
(2.9 -1.55586e-14 0)
(2.9 -2.90546e-15 0)
(2.9 -3.34139e-15 0)
(2.9 -7.32142e-16 0)
(2.9 7.73589e-15 0)
(2.9 -7.95225e-15 0)
(2.9 1.48618e-14 0)
(2.9 2.24656e-15 0)
(2.9 2.94693e-14 0)
(2.9 -3.42666e-14 0)
(2.9 -3.34105e-14 0)
(2.9 -7.22396e-15 0)
(2.9 -1.17757e-14 0)
(2.9 -4.89313e-15 0)
(2.9 -1.45533e-14 0)
(2.9 -2.63356e-14 0)
(2.9 -4.62227e-14 0)
(2.9 7.61808e-15 0)
(2.9 1.87911e-15 0)
(2.9 -5.75374e-15 0)
(2.9 -5.33993e-14 0)
(2.9 -3.07436e-14 0)
(2.9 -3.78929e-14 0)
(2.9 4.95281e-14 0)
(2.9 -1.02514e-14 0)
(2.9 -2.63578e-14 0)
(2.9 -1.8842e-14 0)
(2.9 -5.19792e-14 0)
(2.9 1.37968e-14 0)
(2.9 4.22809e-15 0)
(2.9 -2.55425e-14 0)
(2.9 -3.54102e-14 0)
(2.9 1.87045e-14 0)
(2.9 -1.59896e-14 0)
(2.9 -2.59797e-15 0)
(2.9 9.15603e-15 0)
(2.9 4.09796e-14 0)
(2.9 -2.40191e-15 0)
(2.9 3.06245e-15 0)
(2.9 1.40612e-15 0)
(2.9 3.28945e-15 0)
(2.9 4.00517e-14 0)
(2.9 2.67305e-14 0)
(2.9 -3.06458e-14 0)
(2.9 2.52372e-14 0)
(2.9 2.99131e-14 0)
(2.9 -2.56548e-17 0)
(2.9 -1.03074e-14 0)
(2.9 2.52645e-14 0)
(2.9 3.11862e-15 0)
(2.9 -2.3055e-14 0)
(2.9 -2.60086e-14 0)
(2.9 7.67473e-15 0)
(2.9 -6.10989e-15 0)
(2.9 -2.73321e-15 0)
(2.9 -1.2009e-14 0)
(2.9 1.68535e-14 0)
(2.9 1.15987e-14 0)
(2.9 6.64466e-15 0)
(2.9 3.83263e-15 0)
(2.9 -1.02501e-14 0)
(2.9 -1.80451e-14 0)
(2.9 -1.0252e-14 0)
(2.9 -5.19555e-15 0)
(2.9 -3.96317e-14 0)
(2.9 -5.46054e-14 0)
(2.9 -4.01737e-14 0)
(2.9 -2.07174e-14 0)
(2.9 -3.60392e-15 0)
(2.9 -2.83353e-14 0)
(2.9 -3.76989e-14 0)
(2.9 -3.48753e-14 0)
(2.9 -2.57831e-14 0)
(2.9 -2.33799e-14 0)
(2.9 3.41637e-14 0)
(2.9 -1.83378e-14 0)
(2.9 -3.93281e-14 0)
(2.9 -1.39587e-14 0)
(2.9 -3.55975e-15 0)
(2.9 -3.53477e-16 0)
(2.9 1.09783e-14 0)
(2.9 1.60961e-14 0)
(2.9 -1.74136e-14 0)
(2.9 7.27367e-15 0)
(2.9 -2.71267e-16 0)
(2.9 -6.86227e-15 0)
(2.9 -7.67044e-15 0)
(2.9 -4.01148e-14 0)
(2.9 -2.72426e-14 0)
(2.9 -2.07131e-14 0)
(2.9 -1.13227e-14 0)
(2.9 -4.15916e-14 0)
(2.9 3.37053e-14 0)
(2.9 -9.92421e-15 0)
(2.9 6.11843e-15 0)
(2.9 1.80409e-14 0)
(2.9 -1.38218e-14 0)
(2.9 2.46573e-14 0)
(2.9 -4.06216e-15 0)
(2.9 4.78911e-15 0)
(2.9 -6.66421e-16 0)
(2.9 -9.77152e-15 0)
(2.9 -7.2312e-15 0)
(2.9 -1.56286e-14 0)
(2.9 1.35438e-14 0)
(2.9 1.02705e-15 0)
(2.9 -1.54324e-14 0)
(2.9 2.79628e-14 0)
(2.9 -1.27904e-14 0)
(2.9 -3.13913e-15 0)
(2.9 -3.28233e-14 0)
(2.9 -3.4176e-14 0)
(2.9 -3.06053e-14 0)
(2.9 7.40667e-15 0)
(2.9 1.70777e-15 0)
(2.9 -9.85446e-15 0)
(2.9 -1.71062e-15 0)
(2.9 -7.45918e-15 0)
(2.9 7.30019e-15 0)
(2.9 2.15257e-14 0)
(2.9 1.7411e-14 0)
(2.9 2.40423e-15 0)
(2.9 -2.69814e-14 0)
(2.9 -1.69032e-15 0)
(2.9 -7.47043e-15 0)
(2.9 -3.15404e-14 0)
(2.9 -1.65764e-14 0)
(2.9 -1.18064e-15 0)
(2.9 -4.26153e-15 0)
(2.9 5.35696e-15 0)
(2.9 1.73691e-14 0)
(2.9 1.01379e-14 0)
(2.9 -1.13843e-14 0)
(2.9 -1.66841e-14 0)
(2.9 1.59011e-14 0)
(2.9 3.87233e-15 0)
(2.9 -2.19835e-14 0)
(2.9 -2.01008e-14 0)
(2.9 -9.38897e-15 0)
(2.9 -3.94699e-15 0)
(2.9 4.04924e-15 0)
(2.9 -1.72087e-14 0)
(2.9 1.98842e-14 0)
(2.9 -2.38566e-15 0)
(2.9 -1.70597e-14 0)
(2.9 -5.44486e-15 0)
(2.9 3.26284e-14 0)
(2.9 2.83337e-15 0)
(2.9 -1.96783e-14 0)
(2.9 -8.45239e-15 0)
(2.9 -2.17576e-14 0)
(2.9 1.75764e-14 0)
(2.9 9.09294e-15 0)
(2.9 -3.49383e-15 0)
(2.9 -8.60912e-15 0)
(2.9 1.87119e-14 0)
(2.9 -1.34602e-15 0)
(2.9 2.46287e-15 0)
(2.9 -1.07628e-14 0)
(2.9 -4.91672e-17 0)
(2.9 3.35293e-15 0)
(2.9 -1.34656e-14 0)
(2.9 -1.53848e-14 0)
(2.9 -1.40143e-14 0)
(2.9 7.75772e-15 0)
(2.9 -4.64175e-14 0)
(2.9 3.51962e-15 0)
(2.9 -2.1542e-14 0)
(2.9 -4.08303e-14 0)
(2.9 -1.83919e-14 0)
(2.9 2.60356e-14 0)
(2.9 3.38395e-14 0)
(2.9 -9.55931e-15 0)
(2.9 4.75305e-14 0)
(2.9 7.91271e-15 0)
(2.9 3.5359e-14 0)
(2.9 5.95756e-15 0)
(2.9 -2.43884e-14 0)
(2.9 1.61831e-14 0)
(2.9 -7.10593e-15 0)
(2.9 -2.76513e-14 0)
(2.9 -1.57632e-14 0)
(2.9 -9.45032e-15 0)
(2.9 8.56038e-15 0)
(2.9 1.28919e-14 0)
(2.9 6.44855e-15 0)
(2.9 -4.19121e-15 0)
(2.9 2.12619e-14 0)
(2.9 3.44848e-14 0)
(2.9 2.41505e-14 0)
(2.9 3.64411e-14 0)
(2.9 -8.28308e-15 0)
(2.9 1.03573e-14 0)
(2.9 1.84037e-14 0)
(2.9 1.95595e-14 0)
(2.9 2.24643e-14 0)
(2.9 4.97756e-14 0)
(2.9 -2.41303e-14 0)
(2.9 1.42045e-15 0)
(2.9 1.78769e-14 0)
(2.9 4.51511e-14 0)
(2.9 1.12618e-14 0)
(2.9 4.64422e-14 0)
(2.9 -2.25326e-14 0)
(2.9 4.57472e-15 0)
(2.9 1.39124e-14 0)
(2.9 6.85784e-15 0)
(2.9 5.41015e-14 0)
(2.9 2.01855e-14 0)
(2.9 3.16168e-14 0)
(2.9 2.94444e-14 0)
(2.9 4.89011e-14 0)
(2.9 1.07355e-14 0)
(2.9 -4.14355e-15 0)
(2.9 2.35023e-15 0)
(2.9 -1.58168e-14 0)
(2.9 1.17299e-14 0)
(2.9 -3.86728e-15 0)
(2.9 -6.5121e-15 0)
(2.9 -4.83437e-15 0)
(2.9 2.72053e-14 0)
(2.9 4.5503e-15 0)
(2.9 3.12423e-16 0)
(2.9 5.73996e-14 0)
(2.9 3.10327e-15 0)
(2.9 -1.09625e-14 0)
(2.9 -3.17015e-15 0)
(2.9 -2.31863e-14 0)
(2.9 -2.9824e-14 0)
(2.9 -1.63841e-14 0)
(2.9 3.53599e-14 0)
(2.9 3.64215e-14 0)
(2.9 -1.59566e-14 0)
(2.9 4.85142e-15 0)
(2.9 -1.11449e-14 0)
(2.9 1.10162e-14 0)
(2.9 8.76925e-15 0)
(2.9 1.32959e-14 0)
(2.9 3.0619e-14 0)
(2.9 -1.58812e-14 0)
(2.9 -2.73674e-14 0)
(2.9 -2.92557e-14 0)
(2.9 -3.09089e-14 0)
(2.9 1.19404e-14 0)
(2.9 -1.19537e-14 0)
(2.9 -1.58072e-14 0)
(2.9 -3.69052e-14 0)
(2.9 -3.57453e-15 0)
(2.9 9.3744e-15 0)
(2.9 -2.9726e-15 0)
(2.9 8.91576e-15 0)
(2.9 -3.05377e-14 0)
(2.9 -2.54567e-15 0)
(2.9 -6.83776e-15 0)
(2.9 1.12278e-14 0)
(2.9 3.29647e-14 0)
(2.9 1.6378e-14 0)
(2.9 -2.00885e-14 0)
(2.9 -3.27978e-15 0)
(2.9 -8.76705e-15 0)
(2.9 3.12282e-14 0)
(2.9 -4.58957e-16 0)
(2.9 1.72577e-14 0)
(2.9 -2.03924e-14 0)
(2.9 -7.3186e-15 0)
(2.9 9.63711e-15 0)
(2.9 -1.62531e-14 0)
(2.9 4.80635e-15 0)
(2.9 1.17429e-15 0)
(2.9 -4.71321e-15 0)
(2.9 1.67284e-14 0)
(2.9 1.50329e-14 0)
(2.9 1.35005e-14 0)
(2.9 1.08733e-14 0)
(2.9 3.00954e-14 0)
(2.9 2.0149e-16 0)
(2.9 -1.59851e-14 0)
(2.9 -1.42214e-14 0)
(2.9 1.84574e-14 0)
(2.9 -3.95161e-15 0)
(2.9 -3.30013e-14 0)
(2.9 -1.22045e-14 0)
(2.9 -2.55577e-14 0)
(2.9 2.79992e-14 0)
(2.9 8.79411e-15 0)
(2.9 -3.45417e-15 0)
(2.9 1.20951e-14 0)
(2.9 2.91105e-14 0)
(2.9 2.09084e-14 0)
(2.9 1.33288e-14 0)
(2.9 1.36518e-14 0)
(2.9 1.08596e-14 0)
(2.9 3.76175e-15 0)
(2.9 5.74653e-15 0)
(2.9 1.53806e-14 0)
(2.9 -2.47118e-15 0)
(2.9 -3.84311e-15 0)
(2.9 2.5463e-15 0)
(2.9 -1.8636e-14 0)
(2.9 1.15103e-14 0)
(2.9 1.76769e-14 0)
(2.9 5.81527e-15 0)
(2.9 9.42119e-15 0)
(2.9 1.72707e-15 0)
(2.9 2.58928e-14 0)
(2.9 1.02773e-14 0)
(2.9 1.58741e-14 0)
(2.9 -1.42353e-14 0)
(2.9 -4.53143e-15 0)
(2.9 2.56486e-14 0)
(2.9 -2.83577e-15 0)
(2.9 -1.23862e-14 0)
(2.9 1.07369e-14 0)
(2.9 1.22137e-14 0)
(2.9 -2.16861e-14 0)
(2.9 1.22704e-14 0)
(2.9 -3.42917e-15 0)
(2.9 4.75742e-15 0)
(2.9 -1.74105e-14 0)
(2.9 -3.83652e-15 0)
(2.9 -1.03191e-15 0)
(2.9 -2.69804e-14 0)
(2.9 -1.81064e-14 0)
(2.9 3.97006e-15 0)
(2.9 8.22961e-15 0)
(2.9 1.55713e-14 0)
(2.9 2.87442e-14 0)
(2.9 1.24534e-14 0)
(2.9 -9.00532e-15 0)
(2.9 -2.27984e-14 0)
(2.9 2.71394e-15 0)
(2.9 1.13553e-14 0)
(2.9 -2.3221e-14 0)
(2.9 1.30296e-15 0)
(2.9 3.9871e-14 0)
(2.9 -1.69497e-14 0)
(2.9 -4.22989e-15 0)
(2.9 1.19469e-14 0)
(2.9 3.02489e-14 0)
(2.9 1.36549e-15 0)
(2.9 -1.04866e-14 0)
(2.9 -3.10828e-14 0)
(2.9 8.35681e-15 0)
(2.9 -5.5848e-14 0)
(2.9 4.88776e-15 0)
(2.9 3.14012e-14 0)
(2.9 5.02492e-14 0)
(2.9 5.04593e-14 0)
(2.9 5.64848e-14 0)
(2.9 2.46589e-14 0)
(2.9 -2.95174e-16 0)
(2.9 -4.35008e-16 0)
(2.9 3.96163e-14 0)
(2.9 2.11506e-14 0)
(2.9 1.02633e-14 0)
(2.9 -9.15033e-15 0)
(2.9 2.17809e-14 0)
(2.9 -1.85948e-14 0)
(2.9 -2.38488e-14 0)
(2.9 1.54981e-14 0)
(2.9 3.47047e-14 0)
(2.9 6.1218e-14 0)
(2.9 4.6132e-14 0)
(2.9 -4.65639e-15 0)
(2.9 1.31864e-14 0)
(2.9 6.78006e-14 0)
(2.9 4.45432e-14 0)
(2.9 -8.8194e-15 0)
(2.9 1.25446e-14 0)
(2.9 -2.2289e-15 0)
(2.9 -1.49019e-14 0)
(2.9 5.83663e-15 0)
(2.9 7.90747e-15 0)
(2.9 -2.46547e-14 0)
(2.9 -3.84859e-14 0)
(2.9 -8.2721e-15 0)
(2.9 -1.19055e-14 0)
(2.9 4.82469e-14 0)
(2.9 2.32501e-14 0)
(2.9 3.0199e-14 0)
(2.9 -1.06428e-14 0)
(2.9 -2.84954e-14 0)
(2.9 2.0212e-14 0)
(2.9 2.48948e-14 0)
(2.9 1.25374e-14 0)
(2.9 -8.75311e-15 0)
(2.9 1.64683e-14 0)
(2.9 1.12237e-14 0)
(2.9 -1.19649e-14 0)
(2.9 2.46864e-14 0)
(2.9 7.22612e-15 0)
(2.9 2.52309e-14 0)
(2.9 -3.58285e-15 0)
(2.9 -9.57545e-15 0)
(2.9 -1.16451e-14 0)
(2.9 -1.16209e-14 0)
(2.9 -7.91508e-15 0)
(2.9 -1.37646e-14 0)
(2.9 1.47508e-14 0)
(2.9 6.14179e-15 0)
(2.9 7.4863e-15 0)
(2.9 1.42485e-14 0)
(2.9 2.38392e-14 0)
(2.9 -3.32373e-14 0)
(2.9 -1.91798e-14 0)
(2.9 -9.50892e-16 0)
(2.9 1.66616e-14 0)
(2.9 5.04118e-15 0)
(2.9 1.08458e-14 0)
(2.9 4.01595e-15 0)
(2.9 -1.46812e-14 0)
(2.9 1.07234e-15 0)
(2.9 1.36189e-14 0)
(2.9 1.09032e-14 0)
(2.9 -3.2088e-15 0)
(2.9 -7.78391e-15 0)
(2.9 -7.41021e-15 0)
(2.9 1.40885e-14 0)
(2.9 5.23422e-15 0)
(2.9 -2.98574e-15 0)
(2.9 2.20152e-14 0)
(2.9 2.27672e-14 0)
(2.9 1.65604e-14 0)
(2.9 -1.01175e-14 0)
(2.9 -6.24861e-15 0)
(2.9 1.76918e-14 0)
(2.9 1.62975e-14 0)
(2.9 2.26868e-14 0)
(2.9 2.93249e-14 0)
(2.9 4.38698e-15 0)
(2.9 2.80745e-15 0)
(2.9 2.89251e-14 0)
(2.9 -8.09534e-15 0)
(2.9 -1.41858e-14 0)
(2.9 -6.65645e-15 0)
(2.9 -1.71013e-14 0)
(2.9 1.51431e-14 0)
(2.9 2.31331e-14 0)
(2.9 2.19586e-14 0)
(2.9 1.05004e-14 0)
(2.9 -6.60247e-16 0)
(2.9 -8.48201e-15 0)
(2.9 9.13864e-15 0)
(2.9 3.00635e-15 0)
(2.9 -1.05907e-14 0)
(2.9 -1.18084e-14 0)
(2.9 1.86451e-15 0)
(2.9 4.39426e-15 0)
(2.9 -8.0738e-15 0)
(2.9 -1.68493e-14 0)
(2.9 -8.9829e-15 0)
(2.9 -4.08367e-16 0)
(2.9 -1.58445e-14 0)
(2.9 1.00164e-14 0)
(2.9 -3.1315e-14 0)
(2.9 5.84922e-15 0)
(2.9 3.93277e-15 0)
(2.9 -2.36314e-14 0)
(2.9 -2.0339e-14 0)
(2.9 -2.17e-14 0)
(2.9 -1.37246e-14 0)
(2.9 1.30716e-14 0)
(2.9 1.7422e-14 0)
(2.9 1.05088e-14 0)
(2.9 -1.53142e-14 0)
(2.9 -1.32457e-14 0)
(2.9 -1.99986e-14 0)
(2.9 -2.80561e-14 0)
(2.9 -1.17551e-14 0)
(2.9 -8.01426e-15 0)
(2.9 -1.10817e-15 0)
(2.9 -8.15038e-16 0)
(2.9 -1.53807e-14 0)
(2.9 5.66933e-16 0)
(2.9 -1.01012e-14 0)
(2.9 -9.23282e-15 0)
(2.9 -2.05344e-14 0)
(2.9 1.63127e-14 0)
(2.9 1.08333e-14 0)
(2.9 -2.35847e-16 0)
(2.9 -6.77813e-15 0)
(2.9 -1.1898e-14 0)
(2.9 7.46685e-15 0)
(2.9 2.6923e-14 0)
(2.9 1.40914e-14 0)
(2.9 7.27457e-15 0)
(2.9 1.06395e-14 0)
(2.9 1.70594e-14 0)
(2.9 1.24762e-14 0)
(2.9 1.6852e-14 0)
(2.9 -8.89207e-15 0)
(2.9 -2.65259e-14 0)
(2.9 2.32494e-15 0)
(2.9 -4.87576e-15 0)
(2.9 4.96825e-15 0)
(2.9 -2.19381e-15 0)
(2.9 -3.74659e-15 0)
(2.9 -2.05065e-14 0)
(2.9 -1.35138e-14 0)
(2.9 -2.30286e-14 0)
(2.9 8.63315e-15 0)
(2.9 1.70501e-14 0)
(2.9 -1.58123e-14 0)
(2.9 8.68258e-15 0)
(2.9 -7.41862e-15 0)
(2.9 -6.61374e-15 0)
(2.9 1.86006e-14 0)
(2.9 1.16011e-14 0)
(2.9 2.78031e-14 0)
(2.9 1.76082e-15 0)
(2.9 5.051e-15 0)
(2.9 2.71796e-16 0)
(2.9 -2.95707e-14 0)
(2.9 -1.12309e-14 0)
(2.9 -8.1359e-15 0)
(2.9 -1.56571e-15 0)
(2.9 8.743e-15 0)
(2.9 -3.96153e-14 0)
(2.9 -1.55263e-14 0)
(2.9 -4.53487e-15 0)
(2.9 4.3794e-15 0)
(2.9 -2.47478e-14 0)
(2.9 -7.5115e-15 0)
(2.9 1.04883e-14 0)
(2.9 -1.3712e-14 0)
(2.9 3.84167e-14 0)
(2.9 2.03838e-15 0)
(2.9 -6.15897e-15 0)
(2.9 -2.5155e-14 0)
(2.9 -4.15433e-15 0)
(2.9 1.72565e-14 0)
(2.9 -1.96351e-14 0)
(2.9 -3.24205e-14 0)
(2.9 1.51186e-14 0)
(2.9 2.91289e-15 0)
(2.9 7.89253e-15 0)
(2.9 2.77507e-14 0)
(2.9 5.15039e-16 0)
(2.9 1.6499e-14 0)
(2.9 2.76993e-14 0)
(2.9 -2.92859e-15 0)
(2.9 -2.03769e-14 0)
(2.9 1.14081e-14 0)
(2.9 -6.00225e-15 0)
(2.9 1.67817e-15 0)
(2.9 1.65302e-14 0)
(2.9 3.04101e-14 0)
(2.9 -2.81059e-14 0)
(2.9 3.64903e-15 0)
(2.9 -4.05268e-15 0)
(2.9 -3.14083e-14 0)
(2.9 -4.67112e-14 0)
(2.9 2.02475e-15 0)
(2.9 7.12112e-14 0)
(2.9 3.03901e-14 0)
(2.9 -1.0852e-15 0)
(2.9 -1.87879e-15 0)
(2.9 1.57959e-16 0)
(2.9 -5.09965e-15 0)
(2.9 -1.11242e-14 0)
(2.9 -2.31618e-14 0)
(2.9 6.1453e-14 0)
(2.9 -6.05363e-15 0)
(2.9 2.0303e-14 0)
(2.9 -1.26891e-14 0)
(2.9 6.38583e-15 0)
(2.9 3.31265e-14 0)
(2.9 -4.70336e-15 0)
(2.9 1.05532e-14 0)
(2.9 7.66017e-14 0)
(2.9 4.34571e-14 0)
(2.9 7.86689e-15 0)
(2.9 -3.83419e-14 0)
(2.9 -1.91096e-14 0)
(2.9 -1.76614e-14 0)
(2.9 -3.95082e-14 0)
(2.9 -2.04368e-15 0)
(2.9 9.85865e-15 0)
(2.9 -3.72112e-14 0)
(2.9 1.45374e-14 0)
(2.9 1.3156e-14 0)
(2.9 -3.4259e-15 0)
(2.9 -3.11078e-14 0)
(2.9 -4.02979e-15 0)
(2.9 -1.50115e-14 0)
(2.9 4.8922e-15 0)
(2.9 2.7974e-14 0)
(2.9 -1.38853e-14 0)
(2.9 5.54064e-15 0)
(2.9 -6.87383e-15 0)
(2.9 1.14833e-14 0)
(2.9 7.36596e-15 0)
(2.9 3.22611e-15 0)
(2.9 -2.27622e-14 0)
(2.9 2.18553e-14 0)
(2.9 1.43704e-14 0)
(2.9 1.09041e-15 0)
(2.9 2.49203e-15 0)
(2.9 2.19074e-15 0)
(2.9 -2.59575e-15 0)
(2.9 7.30262e-15 0)
(2.9 -1.27971e-14 0)
(2.9 3.08063e-16 0)
(2.9 -1.37249e-14 0)
(2.9 -7.29986e-15 0)
(2.9 5.17818e-15 0)
(2.9 1.50246e-15 0)
(2.9 7.58378e-15 0)
(2.9 4.91321e-15 0)
(2.9 7.80238e-15 0)
(2.9 2.45866e-14 0)
(2.9 2.75545e-14 0)
(2.9 1.05411e-14 0)
(2.9 -6.95676e-15 0)
(2.9 -1.48218e-14 0)
(2.9 -1.74583e-14 0)
(2.9 -2.07187e-15 0)
(2.9 -2.3332e-15 0)
(2.9 1.24844e-14 0)
(2.9 -1.8068e-14 0)
(2.9 -1.52591e-14 0)
(2.9 2.93044e-14 0)
(2.9 1.04808e-14 0)
(2.9 3.89835e-16 0)
(2.9 2.2194e-14 0)
(2.9 1.85756e-14 0)
(2.9 -2.53209e-15 0)
(2.9 -7.81812e-15 0)
(2.9 2.08154e-15 0)
(2.9 2.69065e-14 0)
(2.9 4.83427e-15 0)
(2.9 6.23974e-16 0)
(2.9 2.24559e-15 0)
(2.9 -2.10061e-14 0)
(2.9 -4.47532e-15 0)
(2.9 -5.27279e-15 0)
(2.9 -1.80063e-14 0)
(2.9 -1.53201e-14 0)
(2.9 -5.85711e-15 0)
(2.9 -9.5204e-15 0)
(2.9 1.46207e-14 0)
(2.9 7.65232e-15 0)
(2.9 -4.60325e-15 0)
(2.9 3.69122e-14 0)
(2.9 -8.26984e-15 0)
(2.9 -5.82034e-15 0)
(2.9 -6.53121e-15 0)
(2.9 2.08416e-15 0)
(2.9 5.32296e-14 0)
(2.9 2.48594e-14 0)
(2.9 1.83246e-16 0)
(2.9 1.00368e-14 0)
(2.9 2.40078e-15 0)
(2.9 -1.17064e-14 0)
(2.9 1.99778e-14 0)
(2.9 -7.9191e-15 0)
(2.9 -3.55378e-14 0)
(2.9 1.59365e-15 0)
(2.9 -7.70895e-15 0)
(2.9 -2.45926e-14 0)
(2.9 -3.55211e-14 0)
(2.9 -1.53741e-14 0)
(2.9 -1.26361e-14 0)
(2.9 -1.62384e-14 0)
(2.9 -1.33346e-14 0)
(2.9 -2.83239e-14 0)
(2.9 -2.39593e-14 0)
(2.9 3.88751e-15 0)
(2.9 -4.26567e-14 0)
(2.9 -8.61876e-15 0)
(2.9 1.81056e-14 0)
(2.9 3.3955e-14 0)
(2.9 -1.0012e-14 0)
(2.9 -1.64975e-14 0)
(2.9 -3.98186e-14 0)
(2.9 -1.24791e-14 0)
(2.9 -1.88832e-14 0)
(2.9 -1.42265e-14 0)
(2.9 -1.34991e-15 0)
(2.9 -1.20023e-14 0)
(2.9 -2.05242e-14 0)
(2.9 -5.33134e-14 0)
(2.9 -2.46588e-14 0)
(2.9 -2.90359e-14 0)
(2.9 -1.22829e-15 0)
(2.9 1.65235e-14 0)
(2.9 -2.29162e-14 0)
(2.9 -8.45603e-15 0)
(2.9 -2.13478e-14 0)
(2.9 -3.07203e-14 0)
(2.9 -9.70078e-15 0)
(2.9 -1.10958e-14 0)
(2.9 5.50673e-14 0)
(2.9 4.143e-14 0)
(2.9 7.95311e-15 0)
(2.9 2.40737e-14 0)
(2.9 9.99709e-16 0)
(2.9 1.79048e-14 0)
(2.9 9.22872e-15 0)
(2.9 7.33009e-15 0)
(2.9 -1.59564e-14 0)
(2.9 -1.83384e-14 0)
(2.9 -1.95945e-14 0)
(2.9 3.36222e-14 0)
(2.9 1.62222e-14 0)
(2.9 1.65998e-14 0)
(2.9 -8.07807e-15 0)
(2.9 3.44164e-14 0)
(2.9 2.18839e-14 0)
(2.9 2.70472e-14 0)
(2.9 2.50524e-15 0)
(2.9 7.88918e-15 0)
(2.9 -9.40301e-16 0)
(2.9 -1.93305e-15 0)
(2.9 6.61529e-15 0)
(2.9 -7.68802e-15 0)
(2.9 -7.49201e-15 0)
(2.9 -1.45029e-14 0)
(2.9 2.49677e-15 0)
(2.9 1.23484e-14 0)
(2.9 -4.91103e-15 0)
(2.9 -3.23356e-15 0)
(2.9 -5.47581e-15 0)
(2.9 -3.47124e-14 0)
(2.9 -2.02737e-14 0)
(2.9 -2.79153e-14 0)
(2.9 -1.96695e-14 0)
(2.9 -1.29442e-14 0)
(2.9 -9.39271e-15 0)
(2.9 6.17335e-15 0)
(2.9 2.30047e-14 0)
(2.9 4.00058e-14 0)
(2.9 1.79249e-14 0)
(2.9 9.64027e-15 0)
(2.9 -1.76661e-14 0)
(2.9 -8.80943e-15 0)
(2.9 2.34961e-14 0)
(2.9 -4.54838e-15 0)
(2.9 -1.85694e-15 0)
(2.9 6.76602e-15 0)
(2.9 3.12723e-14 0)
(2.9 -7.99251e-15 0)
(2.9 1.53652e-16 0)
(2.9 -2.56376e-14 0)
(2.9 1.79644e-14 0)
(2.9 -1.38957e-14 0)
(2.9 5.87113e-16 0)
(2.9 1.56623e-14 0)
(2.9 -2.19836e-14 0)
(2.9 -1.33973e-14 0)
(2.9 2.01214e-15 0)
(2.9 -2.16161e-14 0)
(2.9 4.23827e-14 0)
(2.9 3.80783e-14 0)
(2.9 2.96445e-16 0)
(2.9 -2.36465e-16 0)
(2.9 8.86307e-15 0)
(2.9 2.10705e-14 0)
(2.9 -2.73221e-17 0)
(2.9 1.42673e-14 0)
(2.9 -1.57841e-14 0)
(2.9 -6.22988e-15 0)
(2.9 -9.96302e-15 0)
(2.9 5.18665e-16 0)
(2.9 -2.0776e-14 0)
(2.9 -4.48914e-15 0)
(2.9 -2.01669e-14 0)
(2.9 -1.39968e-14 0)
(2.9 -3.67443e-14 0)
(2.9 -1.65778e-14 0)
(2.9 -2.96266e-15 0)
(2.9 -1.00925e-14 0)
(2.9 -1.2675e-14 0)
(2.9 1.30148e-14 0)
(2.9 3.061e-15 0)
(2.9 2.38256e-14 0)
(2.9 3.27577e-14 0)
(2.9 -9.76236e-15 0)
(2.9 -1.12223e-14 0)
(2.9 1.02047e-14 0)
(2.9 3.54837e-16 0)
(2.9 1.14765e-16 0)
(2.9 3.9392e-15 0)
(2.9 1.64751e-14 0)
(2.9 4.83379e-14 0)
(2.9 2.47855e-14 0)
(2.9 8.93325e-15 0)
(2.9 -6.04456e-15 0)
(2.9 -1.572e-14 0)
(2.9 1.14703e-14 0)
(2.9 2.57221e-14 0)
(2.9 2.5514e-14 0)
(2.9 2.33794e-14 0)
(2.9 4.67976e-15 0)
(2.9 -8.08141e-15 0)
(2.9 2.27419e-14 0)
(2.9 3.03857e-14 0)
(2.9 1.67646e-14 0)
(2.9 -1.72782e-14 0)