/*--------------------------------*- C++ -*----------------------------------*\
| =========                 |                                                 |
| \\      /  F ield         | OpenFOAM: The Open Source CFD Toolbox           |
|  \\    /   O peration     | Version:  2412                                  |
|   \\  /    A nd           | Website:  www.openfoam.com                      |
|    \\/     M anipulation  |                                                 |
\*---------------------------------------------------------------------------*/
FoamFile
{
    version     2.0;
    format      ascii;
    arch        "LSB;label=32;scalar=64";
    class       volScalarField;
    location    "0.0116248";
    object      rhoY_Y_O2;
}
// * * * * * * * * * * * * * * * * * * * * * * * * * * * * * * * * * * * * * //

dimensions      [1 -3 0 0 0 0 0];

internalField   nonuniform List<scalar> 
100
(
0
0
0
0
0
0
0
0
0
0
0
0
0
0
0
0
0
0
0
0
0
0
0
0
0
0
0
0
0
0
0
0
0
0
0
0
0
0
0
0
0
0
0
0
0
0
0
0
0
-0.260087
-0.0564905
-0.0505481
-0.0423386
-0.0371498
-0.0338253
-0.0311765
-0.0289546
-0.0274083
-0.0261918
-0.0250441
-0.0242538
-0.0233338
-0.0227025
-0.0221232
-0.0215169
-0.0208477
-0.020244
-0.019835
-0.0195317
-0.0190487
-0.0186072
-0.0183383
-0.0181263
-0.0178723
-0.0176129
-0.0173114
-0.0156645
0.0112609
0.0814679
0.167832
0.241946
0.294133
0.329973
0.355363
0.370125
0.375422
0.373765
0.37467
0.375629
0.377132
0.381382
0.383114
0.383209
0.382036
0.379851
0.378452
0.446358
0.751049
0.866249
0.893616
)
;

boundaryField
{
    sides
    {
        type            calculated;
        value           nonuniform List<scalar> 2(0.160357 0);
    }
    empty
    {
        type            empty;
    }
}


// ************************************************************************* //
