/*--------------------------------*- C++ -*----------------------------------*\
| =========                 |                                                 |
| \\      /  F ield         | OpenFOAM: The Open Source CFD Toolbox           |
|  \\    /   O peration     | Version:  2412                                  |
|   \\  /    A nd           | Website:  www.openfoam.com                      |
|    \\/     M anipulation  |                                                 |
\*---------------------------------------------------------------------------*/
FoamFile
{
    version     2.0;
    format      ascii;
    arch        "LSB;label=32;scalar=64";
    class       volScalarField;
    location    "0.023882";
    object      TTR;
}
// * * * * * * * * * * * * * * * * * * * * * * * * * * * * * * * * * * * * * //

dimensions      [0 0 0 1 0 0 0];

internalField   nonuniform List<scalar> 
100
(
239.737
239.739
239.567
239.567
239.385
239.393
239.326
239.409
239.265
239.479
238.987
239.706
238.407
240.222
237.586
240.832
236.862
241.039
236.62
240.649
236.817
240.071
237.204
239.359
237.417
238.612
237.346
237.866
237.098
237.352
236.999
237.241
237.082
237.089
236.954
237.606
239.335
241.089
240.825
240.202
239.293
238.579
237.375
235.286
234.414
234.963
233.568
231.747
232.044
232.98
232.411
232.236
232.701
232.224
231.605
233.12
234.369
231.19
228.469
233.824
240.439
233.529
219.832
224.352
248.296
251.786
223.537
203.397
227.769
271.724
266.776
270.569
342.121
274.889
313.496
310.263
284.452
324.768
291.541
313.183
314.709
302.422
314.834
308.005
304.867
313.347
298.91
293.776
292.807
323.4
370.666
411.448
418.289
429.262
419.623
425.269
417.377
425.211
421.075
426.149
)
;

boundaryField
{
    sides
    {
        type            zeroGradient;
    }
    empty
    {
        type            empty;
    }
}


// ************************************************************************* //
