/*--------------------------------*- C++ -*----------------------------------*\
| =========                 |                                                 |
| \\      /  F ield         | OpenFOAM: The Open Source CFD Toolbox           |
|  \\    /   O peration     | Version:  2412                                  |
|   \\  /    A nd           | Website:  www.openfoam.com                      |
|    \\/     M anipulation  |                                                 |
\*---------------------------------------------------------------------------*/
FoamFile
{
    version     2.0;
    format      ascii;
    arch        "LSB;label=32;scalar=64";
    class       volVectorField;
    location    "0.00324085";
    object      U;
}
// * * * * * * * * * * * * * * * * * * * * * * * * * * * * * * * * * * * * * //

dimensions      [0 1 -1 0 0 0 0];

internalField   nonuniform List<vector> 
100
(
(9.37841e-15 0 0)
(3.84626e-14 0 0)
(1.19612e-14 0 0)
(-7.55872e-14 0 0)
(-2.3512e-14 0 0)
(4.14494e-14 0 0)
(-9.83577e-15 0 0)
(2.0854e-14 0 0)
(1.22156e-14 0 0)
(-1.47426e-14 0 0)
(-7.16767e-14 0 0)
(-2.55823e-14 0 0)
(-4.05262e-14 0 0)
(-2.50158e-14 0 0)
(2.4099e-14 0 0)
(-2.11297e-14 0 0)
(-3.41497e-14 0 0)
(4.05151e-14 0 0)
(1.52675e-14 0 0)
(9.62063e-15 0 0)
(2.23611e-16 0 0)
(5.53019e-14 0 0)
(7.98967e-14 0 0)
(3.90968e-14 0 0)
(4.4165e-14 0 0)
(8.45567e-14 0 0)
(2.06917e-13 0 0)
(1.58814e-13 0 0)
(1.35411e-13 0 0)
(1.33401e-13 0 0)
(7.83297e-14 0 0)
(2.43126e-14 0 0)
(4.9608e-13 0 0)
(3.12858e-10 0 0)
(1.533e-07 0 0)
(4.76596e-05 0 0)
(0.00716742 0 0)
(0.370129 0 0)
(4.97922 0 0)
(21.4214 0 0)
(46.5496 0 0)
(72.9368 0 0)
(96.6488 0 0)
(122.391 0 0)
(143.386 0 0)
(169.118 0 0)
(193.277 0 0)
(209.608 0 0)
(238.664 0 0)
(264.208 0 0)
(277.807 0 0)
(280.84 0 0)
(282.866 0 0)
(287.38 0 0)
(285.939 0 0)
(278.043 0 0)
(277.616 0 0)
(282.459 0 0)
(283.159 0 0)
(275.169 0 0)
(274.358 0 0)
(276.144 0 0)
(282.499 0 0)
(299.515 0 0)
(294.432 0 0)
(189.628 0 0)
(13.0449 0 0)
(0.030712 0 0)
(7.93212e-06 0 0)
(6.20699e-10 0 0)
(2.55425e-13 0 0)
(-4.38043e-14 0 0)
(-4.90818e-14 0 0)
(9.14414e-15 0 0)
(6.97746e-14 0 0)
(8.3903e-14 0 0)
(-4.88084e-14 0 0)
(-6.8146e-15 0 0)
(-4.77795e-14 0 0)
(-4.36587e-14 0 0)
(-9.76347e-14 0 0)
(-1.43128e-13 0 0)
(-5.07149e-14 0 0)
(4.16114e-14 0 0)
(4.01141e-14 0 0)
(-4.1791e-14 0 0)
(-2.69032e-13 0 0)
(-3.23655e-13 0 0)
(-1.04451e-13 0 0)
(-5.20632e-14 0 0)
(-1.34463e-13 0 0)
(-2.05085e-14 0 0)
(-4.07098e-14 0 0)
(-2.51781e-13 0 0)
(-1.4178e-13 0 0)
(-2.74484e-14 0 0)
(-4.80292e-14 0 0)
(-2.04418e-14 0 0)
(-2.8342e-14 0 0)
(-9.94977e-14 0 0)
)
;

boundaryField
{
    sides
    {
        type            fixedValue;
        value           uniform (0 0 0);
    }
    empty
    {
        type            empty;
    }
}


// ************************************************************************* //
