/*--------------------------------*- C++ -*----------------------------------*\
| =========                 |                                                 |
| \\      /  F ield         | OpenFOAM: The Open Source CFD Toolbox           |
|  \\    /   O peration     | Version:  2412                                  |
|   \\  /    A nd           | Website:  www.openfoam.com                      |
|    \\/     M anipulation  |                                                 |
\*---------------------------------------------------------------------------*/
FoamFile
{
    version     2.0;
    format      ascii;
    arch        "LSB;label=32;scalar=64";
    class       volScalarField;
    location    "0.0283895";
    object      p;
}
// * * * * * * * * * * * * * * * * * * * * * * * * * * * * * * * * * * * * * //

dimensions      [1 -1 -2 0 0 0 0];

internalField   nonuniform List<scalar> 
100
(
26446.8
26448.4
26437.6
26443.8
26420.2
26440.1
26386.5
26449.9
26323.9
26488.8
26231
26552.5
26128.1
26590.1
26054.9
26563.5
26035.6
26483.4
26047.1
26373.4
26057.2
26257.8
26048
26148.9
26012.8
26050
25959.6
25957.3
25889.3
25864.5
25808.6
25773
25721.9
25681.8
25632.5
25588.7
25535.4
25492.1
25434.6
25375.5
25318.4
25298.6
25266.5
25234.3
25263.4
25269.6
25293.5
25336.9
25493.7
25748.9
25970.6
26041
26178.3
26542.6
27350.2
27848.7
27898.6
28047.7
27780.6
27412.4
31377.6
67553.7
95567.5
107161
98453.1
105510
95434
101140
97330.7
95896.7
101004
90147.9
100234
90968
99418.5
98696.3
98056.9
100519
94363.5
96753.5
95860.6
98536.2
99833.9
98905.8
97724.5
96484.3
95421.5
96576.5
96182.2
97974
98555.6
98869.4
96730.2
97462.1
96987.5
98680.9
97768
98281
96856.8
96458.6
)
;

boundaryField
{
    sides
    {
        type            zeroGradient;
    }
    empty
    {
        type            empty;
    }
}


// ************************************************************************* //
