/*--------------------------------*- C++ -*----------------------------------*\
| =========                 |                                                 |
| \\      /  F ield         | OpenFOAM: The Open Source CFD Toolbox           |
|  \\    /   O peration     | Version:  2412                                  |
|   \\  /    A nd           | Website:  www.openfoam.com                      |
|    \\/     M anipulation  |                                                 |
\*---------------------------------------------------------------------------*/
FoamFile
{
    version     2.0;
    format      ascii;
    arch        "LSB;label=32;scalar=64";
    class       volVectorField;
    location    "0.0283895";
    object      U;
}
// * * * * * * * * * * * * * * * * * * * * * * * * * * * * * * * * * * * * * //

dimensions      [0 1 -1 0 0 0 0];

internalField   nonuniform List<vector> 
100
(
(2.46155 0 0)
(7.4291 0 0)
(12.3442 0 0)
(17.2886 0 0)
(22.1654 0 0)
(27.099 0 0)
(31.9053 0 0)
(36.9382 0 0)
(41.672 0 0)
(46.8848 0 0)
(51.4901 0 0)
(56.7493 0 0)
(61.333 0 0)
(66.5228 0 0)
(71.3516 0 0)
(76.3129 0 0)
(81.3825 0 0)
(86.1259 0 0)
(91.3362 0 0)
(96.0065 0 0)
(101.254 0 0)
(105.966 0 0)
(111.162 0 0)
(115.947 0 0)
(121.073 0 0)
(125.931 0 0)
(130.994 0 0)
(135.906 0 0)
(140.926 0 0)
(145.857 0 0)
(150.849 0 0)
(155.806 0 0)
(160.791 0 0)
(165.764 0 0)
(170.745 0 0)
(175.698 0 0)
(180.607 0 0)
(185.499 0 0)
(190.377 0 0)
(195.181 0 0)
(199.992 0 0)
(204.905 0 0)
(209.916 0 0)
(214.694 0 0)
(219.558 0 0)
(224.421 0 0)
(228.437 0 0)
(231.574 0 0)
(234.173 0 0)
(236.476 0 0)
(237.756 0 0)
(237.826 0 0)
(238.47 0 0)
(241.532 0 0)
(248.587 0 0)
(252.693 0 0)
(253.177 0 0)
(254.229 0 0)
(253.409 0 0)
(252.773 0 0)
(236.276 0 0)
(70.5492 0 0)
(0.517214 0 0)
(10.2532 0 0)
(9.52321 0 0)
(-0.617629 0 0)
(-7.24987 0 0)
(-10.3615 0 0)
(-1.51763 0 0)
(-3.76697 0 0)
(6.56493 0 0)
(5.0301 0 0)
(3.4598 0 0)
(3.46743 0 0)
(-4.03962 0 0)
(0.00531888 0 0)
(-3.42853 0 0)
(1.84603 0 0)
(5.07517 0 0)
(3.4736 0 0)
(5.63808 0 0)
(-0.280342 0 0)
(-5.44257 0 0)
(-7.95866 0 0)
(-6.94362 0 0)
(-1.33719 0 0)
(4.30255 0 0)
(8.66824 0 0)
(6.55826 0 0)
(1.31395 0 0)
(-2.07587 0 0)
(-4.11128 0 0)
(-4.38273 0 0)
(-2.8995 0 0)
(0.577938 0 0)
(1.52897 0 0)
(0.0943311 0 0)
(-2.82839 0 0)
(-3.35827 0 0)
(-2.73272 0 0)
)
;

boundaryField
{
    sides
    {
        type            fixedValue;
        value           uniform (0 0 0);
    }
    empty
    {
        type            empty;
    }
}


// ************************************************************************* //
