/*--------------------------------*- C++ -*----------------------------------*\
| =========                 |                                                 |
| \\      /  F ield         | OpenFOAM: The Open Source CFD Toolbox           |
|  \\    /   O peration     | Version:  2412                                  |
|   \\  /    A nd           | Website:  www.openfoam.com                      |
|    \\/     M anipulation  |                                                 |
\*---------------------------------------------------------------------------*/
FoamFile
{
    version     2.0;
    format      ascii;
    arch        "LSB;label=32;scalar=64";
    class       volScalarField;
    location    "0.0539266";
    object      p;
}
// * * * * * * * * * * * * * * * * * * * * * * * * * * * * * * * * * * * * * //

dimensions      [1 -1 -2 0 0 0 0];

internalField   nonuniform List<scalar> 
100
(
91452.4
93297.4
101031
101281
101014
95980.7
92905.7
89387.3
89439.8
89939.5
93702.1
97217.6
101744
100469
98998.9
95737.4
91637.1
92770.4
79644.2
49519.2
40153.4
40936.7
41447.3
42041.7
41522.4
40943.9
40434
41192.4
43287.6
48439.9
49404.7
50160.4
50164.7
50089.1
45717.2
41535.9
40246.7
40637.3
40898.2
41456.4
41727.8
41879.9
41430.2
41426.8
41728
42124.6
42546.5
43178.6
43937.5
44539.6
44979
45361.2
45307.2
44096.9
42788.1
42339.1
42451.1
42794.9
43203.7
43659.3
44227.2
44723.5
45135.4
45141.5
44616.6
44120.1
44005.1
44021.9
44185.6
44263.5
44334.6
44297.8
44252.2
44314.7
44163.7
44402.8
44077.2
44505.4
44163.1
44641.8
44310.1
44441
44538.5
44223.3
44716.2
44328.4
44728
44343.4
44660.6
44611.2
44572.3
44756.3
44482.2
44787.2
44397.8
44735.8
44398.1
44694.3
44559.5
44603.6
)
;

boundaryField
{
    sides
    {
        type            zeroGradient;
    }
    empty
    {
        type            empty;
    }
}


// ************************************************************************* //
