/*--------------------------------*- C++ -*----------------------------------*\
| =========                 |                                                 |
| \\      /  F ield         | OpenFOAM: The Open Source CFD Toolbox           |
|  \\    /   O peration     | Version:  2412                                  |
|   \\  /    A nd           | Website:  www.openfoam.com                      |
|    \\/     M anipulation  |                                                 |
\*---------------------------------------------------------------------------*/
FoamFile
{
    version     2.0;
    format      ascii;
    arch        "LSB;label=32;scalar=64";
    class       volScalarField;
    location    "0.0539266";
    object      rhoY_Y_N2;
}
// * * * * * * * * * * * * * * * * * * * * * * * * * * * * * * * * * * * * * //

dimensions      [1 -3 0 0 0 0 0];

internalField   nonuniform List<scalar> 
100
(
0.988804
1.01441
1.05632
1.07315
1.04887
1.01767
0.983042
0.970595
0.96443
0.975275
1.0078
1.03603
1.06621
1.06766
1.0528
1.02129
1.00052
1.00029
0.910336
0.637257
0.533024
0.540398
0.547231
0.551131
0.548977
0.539273
0.538803
0.542785
0.569919
0.619716
0.632125
0.63598
0.639664
0.635735
0.59308
0.547667
0.537891
0.540692
0.545002
0.55002
0.554314
0.555338
0.551291
0.551203
0.554618
0.558308
0.562619
0.568874
0.576657
0.842655
0.643651
0.641914
0.633169
0.61547
0.598697
0.591618
0.590208
0.591825
0.594293
0.597692
0.602581
0.606694
0.610005
0.608928
0.602333
0.596584
0.59464
0.594879
0.596144
0.597427
0.598185
0.599139
0.600237
0.6019
0.602703
0.602773
0.601367
0.598339
0.589652
0.541274
0.441209
0.319326
0.198745
0.089365
0.0129148
-0.0156108
-0.0239001
-0.0321175
-0.0256446
0.00717824
-0.0186762
-0.000555958
0.000310861
-0.000551893
5.41826e-07
-3.38312e-06
-1.28953e-07
-4.33778e-08
-4.00737e-09
-2.01132e-10
)
;

boundaryField
{
    sides
    {
        type            calculated;
        value           nonuniform List<scalar> 2(0 1.12308);
    }
    empty
    {
        type            empty;
    }
}


// ************************************************************************* //
