/*--------------------------------*- C++ -*----------------------------------*\
| =========                 |                                                 |
| \\      /  F ield         | OpenFOAM: The Open Source CFD Toolbox           |
|  \\    /   O peration     | Version:  2412                                  |
|   \\  /    A nd           | Website:  www.openfoam.com                      |
|    \\/     M anipulation  |                                                 |
\*---------------------------------------------------------------------------*/
FoamFile
{
    version     2.0;
    format      ascii;
    arch        "LSB;label=32;scalar=64";
    class       volScalarField;
    location    "0.0101229";
    object      p;
}
// * * * * * * * * * * * * * * * * * * * * * * * * * * * * * * * * * * * * * //

dimensions      [1 -1 -2 0 0 0 0];

internalField   nonuniform List<scalar> 
100
(
100000
100000
100000
100000
100000
100000
100000
100000
100000
100000
100000
100000
100000
100000
99999.6
99962.4
99277.9
96280.5
91534.1
87175
83725.5
80852.4
78256.1
75793
73409.5
71093.9
68831.9
66646.7
64472.3
62461.6
60280.4
58620.5
56195.9
55178.8
52276.3
51855.8
48922.1
48389.1
46012.9
45145.4
43166
42033.5
40433.6
39193.4
37861.6
36639.6
35189.8
34083.4
33481.7
32630.2
31893
31060.2
31099
32184.1
32568.4
31970
30946.8
31089.6
32471.1
32702.6
32056.8
31076.4
31247.2
32206.9
32555.2
32181.8
31121.6
31208.5
31528.3
32453.8
32430.1
32270.9
31818.9
31513.1
31637.4
31882.6
32163.9
32202.4
31602.1
31523.4
31706.7
31988.2
32236.2
32243.3
32023.1
31780.3
31755.2
31827.1
32151.1
32263.1
32231.5
31951.8
31455.1
31300.8
31288.1
31402
32896.5
33823
28340
13297.4
)
;

boundaryField
{
    sides
    {
        type            zeroGradient;
    }
    empty
    {
        type            empty;
    }
}


// ************************************************************************* //
