/*--------------------------------*- C++ -*----------------------------------*\
| =========                 |                                                 |
| \\      /  F ield         | OpenFOAM: The Open Source CFD Toolbox           |
|  \\    /   O peration     | Version:  2412                                  |
|   \\  /    A nd           | Website:  www.openfoam.com                      |
|    \\/     M anipulation  |                                                 |
\*---------------------------------------------------------------------------*/
FoamFile
{
    version     2.0;
    format      ascii;
    arch        "LSB;label=32;scalar=64";
    class       volVectorField;
    location    "0.0134992";
    object      U;
}
// * * * * * * * * * * * * * * * * * * * * * * * * * * * * * * * * * * * * * //

dimensions      [0 1 -1 0 0 0 0];

internalField   nonuniform List<vector> 
100
(
(1.20493e-11 0 0)
(6.18662e-09 0 0)
(2.18337e-06 0 0)
(0.000446228 0 0)
(0.0380203 0 0)
(0.940122 0 0)
(6.36326 0 0)
(17.2552 0 0)
(28.5995 0 0)
(37.7442 0 0)
(45.1245 0 0)
(51.6477 0 0)
(57.8598 0 0)
(63.9972 0 0)
(70.1371 0 0)
(76.2944 0 0)
(82.4659 0 0)
(88.6485 0 0)
(94.8394 0 0)
(101.043 0 0)
(107.252 0 0)
(113.49 0 0)
(119.698 0 0)
(125.996 0 0)
(132.119 0 0)
(138.544 0 0)
(144.411 0 0)
(151.057 0 0)
(156.639 0 0)
(163.369 0 0)
(169.13 0 0)
(175.339 0 0)
(181.712 0 0)
(187.366 0 0)
(193.883 0 0)
(199.58 0 0)
(206.181 0 0)
(211.856 0 0)
(218.337 0 0)
(224.366 0 0)
(230.822 0 0)
(236.814 0 0)
(243.068 0 0)
(249.256 0 0)
(255.262 0 0)
(261.11 0 0)
(267.259 0 0)
(273.148 0 0)
(277.008 0 0)
(280.792 0 0)
(283.544 0 0)
(286.033 0 0)
(286.409 0 0)
(282.685 0 0)
(279.137 0 0)
(280.041 0 0)
(288.032 0 0)
(289.436 0 0)
(280.283 0 0)
(275.439 0 0)
(278.922 0 0)
(289.812 0 0)
(290.604 0 0)
(280.127 0 0)
(275.174 0 0)
(278.248 0 0)
(289.67 0 0)
(289.324 0 0)
(283.373 0 0)
(276.416 0 0)
(276.992 0 0)
(285.35 0 0)
(288.523 0 0)
(287.011 0 0)
(278.201 0 0)
(276.05 0 0)
(277.199 0 0)
(283.398 0 0)
(288.558 0 0)
(285.294 0 0)
(284.523 0 0)
(280.297 0 0)
(278.462 0 0)
(279.015 0 0)
(281.139 0 0)
(281.537 0 0)
(280.072 0 0)
(281.779 0 0)
(283.435 0 0)
(283.754 0 0)
(280.937 0 0)
(241.619 0 0)
(49.1972 0 0)
(-11.7352 0 0)
(-9.45439 0 0)
(2.06305 0 0)
(5.17962 0 0)
(3.81674 0 0)
(-0.135445 0 0)
(-9.7347 0 0)
)
;

boundaryField
{
    sides
    {
        type            fixedValue;
        value           uniform (0 0 0);
    }
    empty
    {
        type            empty;
    }
}


// ************************************************************************* //
