/*--------------------------------*- C++ -*----------------------------------*\
| =========                 |                                                 |
| \\      /  F ield         | OpenFOAM: The Open Source CFD Toolbox           |
|  \\    /   O peration     | Version:  2412                                  |
|   \\  /    A nd           | Website:  www.openfoam.com                      |
|    \\/     M anipulation  |                                                 |
\*---------------------------------------------------------------------------*/
FoamFile
{
    version     2.0;
    format      ascii;
    arch        "LSB;label=32;scalar=64";
    class       volScalarField;
    location    "0.0357304";
    object      rhoY_Y_N2;
}
// * * * * * * * * * * * * * * * * * * * * * * * * * * * * * * * * * * * * * //

dimensions      [1 -3 0 0 0 0 0];

internalField   nonuniform List<scalar> 
100
(
0.291262
0.291261
0.291238
0.291281
0.291234
0.291285
0.291243
0.291223
0.291236
0.291049
0.291098
0.290833
0.290862
0.290679
0.290587
0.290491
0.29029
0.290245
0.289997
0.289948
0.289712
0.28964
0.289434
0.289343
0.289163
0.289041
0.288866
0.288718
0.28855
0.288391
0.28822
0.288046
0.287872
0.287737
0.287618
0.287591
0.287578
0.287216
0.288337
0.348871
0.652915
0.732752
0.71305
0.699116
0.709039
0.725861
0.741836
0.752595
0.759652
1.01539
0.809539
0.811324
0.812782
0.820138
0.831036
0.841326
0.851447
0.85478
0.84437
0.835733
0.836744
0.847421
0.859253
0.874052
0.884157
0.893247
0.901648
0.903109
0.912042
0.914251
0.927168
0.938603
0.941053
0.943082
0.937126
0.94586
0.955835
0.969106
0.980869
0.979106
0.976147
0.980044
0.992318
1.00958
1.03433
1.0546
1.08953
1.1805
1.01929
0.639525
0.27289
0.079486
0.0168885
0.00283282
0.000372233
3.54567e-05
2.2066e-06
5.5822e-08
-1.70748e-09
-1.43979e-10
)
;

boundaryField
{
    sides
    {
        type            calculated;
        value           nonuniform List<scalar> 2(0 1.12308);
    }
    empty
    {
        type            empty;
    }
}


// ************************************************************************* //
