/*--------------------------------*- C++ -*----------------------------------*\
| =========                 |                                                 |
| \\      /  F ield         | OpenFOAM: The Open Source CFD Toolbox           |
|  \\    /   O peration     | Version:  2412                                  |
|   \\  /    A nd           | Website:  www.openfoam.com                      |
|    \\/     M anipulation  |                                                 |
\*---------------------------------------------------------------------------*/
FoamFile
{
    version     2.0;
    format      ascii;
    arch        "LSB;label=32;scalar=64";
    class       volScalarField;
    location    "0.0368049";
    object      rhoY_Y_N2;
}
// * * * * * * * * * * * * * * * * * * * * * * * * * * * * * * * * * * * * * //

dimensions      [1 -3 0 0 0 0 0];

internalField   nonuniform List<scalar> 
100
(
0.279888
0.279899
0.279884
0.279939
0.279898
0.279942
0.279908
0.279866
0.279928
0.279718
0.279741
0.279536
0.279522
0.279401
0.279353
0.27924
0.279047
0.279019
0.278801
0.278767
0.278557
0.278494
0.278307
0.278216
0.278056
0.277949
0.2778
0.277669
0.277518
0.277383
0.27727
0.277213
0.277173
0.276922
0.276847
0.291771
0.527518
0.692743
0.688775
0.672459
0.680308
0.700442
0.713024
0.719593
0.715129
0.709787
0.714319
0.722563
0.735134
1.01015
0.820407
0.825018
0.824408
0.814081
0.798007
0.79296
0.800378
0.811197
0.824864
0.835694
0.844381
0.852789
0.857525
0.85991
0.862322
0.873028
0.88178
0.8878
0.89208
0.887534
0.895401
0.902331
0.916417
0.930556
0.93257
0.930377
0.928512
0.935044
0.946951
0.963098
0.98171
0.988559
0.982867
0.975306
0.978024
0.989307
1.0036
1.08398
0.948638
0.632708
0.293418
0.0935255
0.0208557
0.0033352
0.000393942
3.22048e-05
1.91305e-06
5.20495e-08
-1.48875e-09
-1.43979e-10
)
;

boundaryField
{
    sides
    {
        type            calculated;
        value           nonuniform List<scalar> 2(0 1.12308);
    }
    empty
    {
        type            empty;
    }
}


// ************************************************************************* //
