/*--------------------------------*- C++ -*----------------------------------*\
| =========                 |                                                 |
| \\      /  F ield         | OpenFOAM: The Open Source CFD Toolbox           |
|  \\    /   O peration     | Version:  2412                                  |
|   \\  /    A nd           | Website:  www.openfoam.com                      |
|    \\/     M anipulation  |                                                 |
\*---------------------------------------------------------------------------*/
FoamFile
{
    version     2.0;
    format      ascii;
    arch        "LSB;label=32;scalar=64";
    class       volVectorField;
    location    "0.0368049";
    object      U;
}
// * * * * * * * * * * * * * * * * * * * * * * * * * * * * * * * * * * * * * //

dimensions      [0 1 -1 0 0 0 0];

internalField   nonuniform List<vector> 
100
(
(1.76834 0 0)
(5.51065 0 0)
(9.02405 0 0)
(12.8126 0 0)
(16.2214 0 0)
(20.124 0 0)
(23.4205 0 0)
(27.3699 0 0)
(30.6408 0 0)
(34.4134 0 0)
(37.9812 0 0)
(41.6902 0 0)
(45.4353 0 0)
(49.0273 0 0)
(52.7977 0 0)
(56.1445 0 0)
(60.0089 0 0)
(63.3432 0 0)
(67.2306 0 0)
(70.6407 0 0)
(74.439 0 0)
(77.9178 0 0)
(81.6272 0 0)
(85.1571 0 0)
(88.8096 0 0)
(92.3804 0 0)
(96.0195 0 0)
(99.6218 0 0)
(103.252 0 0)
(106.838 0 0)
(110.418 0 0)
(113.923 0 0)
(117.426 0 0)
(121.115 0 0)
(124.902 0 0)
(110.186 0 0)
(-66.1557 0 0)
(-149.079 0 0)
(-148.197 0 0)
(-136.899 0 0)
(-134.896 0 0)
(-140.314 0 0)
(-140.954 0 0)
(-138.362 0 0)
(-131.868 0 0)
(-124.18 0 0)
(-120.551 0 0)
(-119.716 0 0)
(-119.961 0 0)
(-121.399 0 0)
(-122.041 0 0)
(-121.328 0 0)
(-118.678 0 0)
(-111.724 0 0)
(-100.932 0 0)
(-94.7376 0 0)
(-92.4348 0 0)
(-93.2601 0 0)
(-94.0858 0 0)
(-93.8443 0 0)
(-92.8864 0 0)
(-90.954 0 0)
(-88.4405 0 0)
(-83.4427 0 0)
(-80.9921 0 0)
(-77.4188 0 0)
(-77.7495 0 0)
(-76.1033 0 0)
(-71.239 0 0)
(-66.9823 0 0)
(-60.458 0 0)
(-62.2211 0 0)
(-59.6054 0 0)
(-59.4964 0 0)
(-56.478 0 0)
(-50.1517 0 0)
(-46.3012 0 0)
(-42.755 0 0)
(-46.9462 0 0)
(-49.3241 0 0)
(-49.0866 0 0)
(-43.6932 0 0)
(-36.2532 0 0)
(-28.5385 0 0)
(-24.276 0 0)
(-24.7417 0 0)
(-25.9013 0 0)
(-26.8885 0 0)
(-22.8811 0 0)
(-14.2797 0 0)
(-3.05005 0 0)
(6.50458 0 0)
(11.576 0 0)
(12.9788 0 0)
(10.1799 0 0)
(3.49062 0 0)
(0.419146 0 0)
(-0.386752 0 0)
(-0.464823 0 0)
(0.607851 0 0)
)
;

boundaryField
{
    sides
    {
        type            fixedValue;
        value           uniform (0 0 0);
    }
    empty
    {
        type            empty;
    }
}


// ************************************************************************* //
