/*--------------------------------*- C++ -*----------------------------------*\
| =========                 |                                                 |
| \\      /  F ield         | OpenFOAM: The Open Source CFD Toolbox           |
|  \\    /   O peration     | Version:  2412                                  |
|   \\  /    A nd           | Website:  www.openfoam.com                      |
|    \\/     M anipulation  |                                                 |
\*---------------------------------------------------------------------------*/
FoamFile
{
    version     2.0;
    format      ascii;
    arch        "LSB;label=32;scalar=64";
    class       volScalarField;
    location    "0.00541989";
    object      rhoY_Y_N2;
}
// * * * * * * * * * * * * * * * * * * * * * * * * * * * * * * * * * * * * * //

dimensions      [1 -3 0 0 0 0 0];

internalField   nonuniform List<scalar> 
100
(
1.12308
1.12308
1.12308
1.12308
1.12308
1.12308
1.12308
1.12308
1.12308
1.12308
1.12308
1.12308
1.12308
1.12308
1.12308
1.12308
1.12308
1.12308
1.12308
1.12308
1.12308
1.12308
1.12308
1.12308
1.12308
1.12308
1.12308
1.12308
1.12308
1.12307
1.12241
1.11224
1.07386
1.01695
0.962682
0.915942
0.873987
0.835337
0.797454
0.76237
0.727243
0.692127
0.666365
0.632167
0.598863
0.585958
0.558975
0.519306
0.484992
0.74261
0.544814
0.521722
0.478475
0.468849
0.500739
0.52193
0.503655
0.467485
0.464562
0.496451
0.524099
0.482709
0.361601
0.224227
0.120341
0.057215
0.0252829
0.0101733
0.00373413
0.0012325
0.000364776
9.67378e-05
2.42212e-05
5.79356e-06
1.26691e-06
1.97578e-07
9.3117e-09
5.55638e-12
7.80015e-20
7.27359e-34
1.12434e-53
-5.58893e-77
0
0
0
0
0
0
0
0
0
0
0
0
0
0
0
0
0
0
)
;

boundaryField
{
    sides
    {
        type            calculated;
        value           nonuniform List<scalar> 2(0 1.12308);
    }
    empty
    {
        type            empty;
    }
}


// ************************************************************************* //
