/*--------------------------------*- C++ -*----------------------------------*\
| =========                 |                                                 |
| \\      /  F ield         | OpenFOAM: The Open Source CFD Toolbox           |
|  \\    /   O peration     | Version:  2412                                  |
|   \\  /    A nd           | Website:  www.openfoam.com                      |
|    \\/     M anipulation  |                                                 |
\*---------------------------------------------------------------------------*/
FoamFile
{
    version     2.0;
    format      ascii;
    arch        "LSB;label=32;scalar=64";
    class       volScalarField;
    location    "0.00863094";
    object      p;
}
// * * * * * * * * * * * * * * * * * * * * * * * * * * * * * * * * * * * * * //

dimensions      [1 -1 -2 0 0 0 0];

internalField   nonuniform List<scalar> 
100
(
100000
100000
100000
100000
100000
100000
100000
100000
100000
100000
100000
100000
100000
100000
100000
100000
100000
100000
100000
99998.3
99896.1
98660.4
94725.3
89557.4
85075.5
81448.8
78310.8
75413.7
72644.6
69983
67372.1
64918.3
62357.8
60271.5
57504.8
56151.3
52838.9
52279.7
48890.4
48228.4
45568.5
44479.5
42318.3
40906.1
39137.3
37868.6
36453.4
34827.3
33302.1
32427.1
32206.6
32076.5
31478.5
31119.7
31600.1
32627.2
32508.5
31387.7
30917.5
31518.5
32523.6
32407
31713.4
31152.9
31443
32362.6
32582.6
32225.2
31772.8
31358.2
31404.6
31687.2
31763
32064.5
32319.6
32069.1
31714.7
31743.3
31822.1
32101.1
32275.8
32250.9
31929.2
31463.8
31397.2
31403.7
31629.4
31942
32450
33621
33306.3
24138.7
11087.5
10001.7
10000
10000
10000
10000
10000
10000
)
;

boundaryField
{
    sides
    {
        type            zeroGradient;
    }
    empty
    {
        type            empty;
    }
}


// ************************************************************************* //
