/*--------------------------------*- C++ -*----------------------------------*\
| =========                 |                                                 |
| \\      /  F ield         | OpenFOAM: The Open Source CFD Toolbox           |
|  \\    /   O peration     | Version:  2412                                  |
|   \\  /    A nd           | Website:  www.openfoam.com                      |
|    \\/     M anipulation  |                                                 |
\*---------------------------------------------------------------------------*/
FoamFile
{
    version     2.0;
    format      ascii;
    arch        "LSB;label=32;scalar=64";
    class       volVectorField;
    location    "7.822e-05";
    object      U;
}
// * * * * * * * * * * * * * * * * * * * * * * * * * * * * * * * * * * * * * //

dimensions      [0 1 -1 0 0 0 0];

internalField   nonuniform List<vector> 
1800
(
(2.9 -6.01428e-14 0)
(2.9 1.23011e-14 0)
(2.9 4.16637e-14 0)
(2.9 -6.44299e-14 0)
(2.9 -3.23334e-14 0)
(2.9 -8.49099e-14 0)
(2.9 -6.98548e-14 0)
(2.9 -7.03997e-14 0)
(2.9 -3.34071e-14 0)
(2.9 -4.6202e-14 0)
(2.9 -1.12239e-14 0)
(2.9 -6.11014e-14 0)
(2.9 -7.23166e-14 0)
(2.9 -7.39882e-14 0)
(2.9 -8.44476e-14 0)
(2.9 -7.5373e-15 0)
(2.9 -1.95163e-14 0)
(2.9 -3.25111e-14 0)
(2.9 -4.16132e-14 0)
(2.9 -2.05533e-14 0)
(2.9 -5.41394e-14 0)
(2.9 -1.84472e-14 0)
(2.9 -2.96392e-14 0)
(2.9 1.28845e-14 0)
(2.9 -7.99733e-15 0)
(2.9 -6.82298e-14 0)
(2.9 -5.7639e-14 0)
(2.9 -4.51632e-14 0)
(2.9 2.85428e-14 0)
(2.9 7.24424e-14 0)
(2.9 -4.16485e-15 0)
(2.9 1.24607e-14 0)
(2.9 -7.7269e-14 0)
(2.9 -7.73273e-14 0)
(2.9 -1.23859e-14 0)
(2.9 -7.42666e-15 0)
(2.9 2.11609e-15 0)
(2.9 1.81191e-14 0)
(2.9 1.04279e-14 0)
(2.9 -1.80247e-14 0)
(2.9 -5.83326e-15 0)
(2.9 3.83306e-14 0)
(2.9 4.77665e-15 0)
(2.9 -5.57677e-15 0)
(2.9 -4.21669e-14 0)
(2.9 -4.71135e-14 0)
(2.9 9.45847e-15 0)
(2.9 5.85126e-14 0)
(2.9 3.9494e-14 0)
(2.9 4.94486e-14 0)
(2.9 2.63511e-14 0)
(2.9 -1.8717e-14 0)
(2.9 -7.82482e-16 0)
(2.9 -3.06999e-14 0)
(2.9 1.47814e-14 0)
(2.9 1.17988e-14 0)
(2.9 -5.97732e-14 0)
(2.9 -2.13162e-14 0)
(2.9 -5.74398e-14 0)
(2.9 -1.13241e-13 0)
(2.9 -1.11563e-13 0)
(2.9 2.13914e-14 0)
(2.9 6.79468e-14 0)
(2.9 -3.47423e-14 0)
(2.9 -3.95833e-14 0)
(2.9 -1.98548e-13 0)
(2.9 -1.85074e-13 0)
(2.9 -1.27244e-13 0)
(2.9 -5.33967e-14 0)
(2.9 -2.8656e-14 0)
(2.9 -1.86318e-14 0)
(2.9 -1.44149e-13 0)
(2.9 -1.02129e-13 0)
(2.9 -1.00311e-13 0)
(2.9 -8.9123e-14 0)
(2.9 2.14954e-14 0)
(2.9 -5.2361e-14 0)
(2.9 -6.60603e-14 0)
(2.9 -9.58642e-14 0)
(2.9 -3.99818e-14 0)
(2.9 -8.26653e-14 0)
(2.9 -2.80025e-14 0)
(2.9 1.66328e-14 0)
(2.9 4.97226e-14 0)
(2.9 -6.55649e-14 0)
(2.9 -2.04257e-13 0)
(2.9 -1.40489e-13 0)
(2.9 -1.18682e-13 0)
(2.9 3.7644e-14 0)
(2.9 9.38702e-14 0)
(2.9 -4.27107e-14 0)
(2.9 1.80011e-15 0)
(2.9 -1.27233e-13 0)
(2.9 -1.49107e-13 0)
(2.9 -5.45205e-14 0)
(2.9 -4.51103e-14 0)
(2.9 1.68556e-14 0)
(2.9 6.85808e-14 0)
(2.9 -2.49757e-14 0)
(2.9 -8.19805e-14 0)
(2.9 -2.74398e-14 0)
(2.9 5.08643e-14 0)
(2.9 8.68214e-15 0)
(2.9 1.39696e-14 0)
(2.9 -8.75021e-14 0)
(2.9 -1.14846e-13 0)
(2.9 2.27252e-14 0)
(2.9 8.94436e-14 0)
(2.9 1.16489e-13 0)
(2.9 1.16277e-13 0)
(2.9 2.14105e-14 0)
(2.9 -7.41625e-14 0)
(2.9 -4.00056e-14 0)
(2.9 -1.11493e-13 0)
(2.9 -1.04774e-14 0)
(2.9 3.9313e-14 0)
(2.9 -6.86901e-14 0)
(2.9 -5.62831e-14 0)
(2.9 -1.5556e-13 0)
(2.9 -1.8316e-13 0)
(2.9 -7.10807e-14 0)
(2.9 3.4158e-15 0)
(2.9 2.28589e-14 0)
(2.9 1.8564e-14 0)
(2.9 -1.96102e-14 0)
(2.9 -1.32982e-13 0)
(2.9 -1.40856e-13 0)
(2.9 -7.21184e-14 0)
(2.9 6.78319e-15 0)
(2.9 -6.32842e-14 0)
(2.9 -7.70156e-14 0)
(2.9 -1.14255e-13 0)
(2.9 -4.96194e-14 0)
(2.9 -4.25271e-14 0)
(2.9 -8.96978e-15 0)
(2.9 6.09593e-14 0)
(2.9 -1.11578e-14 0)
(2.9 -6.22434e-14 0)
(2.9 -2.73094e-14 0)
(2.9 -6.82856e-14 0)
(2.9 -8.26709e-15 0)
(2.9 2.03999e-14 0)
(2.9 8.34061e-14 0)
(2.9 4.95207e-14 0)
(2.9 -1.16306e-13 0)
(2.9 -2.15246e-13 0)
(2.9 -9.27308e-14 0)
(2.9 -5.9592e-14 0)
(2.9 -5.79617e-16 0)
(2.9 1.94095e-14 0)
(2.9 -3.88589e-14 0)
(2.9 -6.99808e-14 0)
(2.9 -1.11796e-13 0)
(2.9 -1.25385e-13 0)
(2.9 -6.33944e-14 0)
(2.9 -4.81173e-14 0)
(2.9 2.79089e-14 0)
(2.9 3.10624e-14 0)
(2.9 -6.2086e-14 0)
(2.9 -1.14296e-13 0)
(2.9 -4.43712e-14 0)
(2.9 -3.75681e-14 0)
(2.9 3.04169e-14 0)
(2.9 -6.16207e-15 0)
(2.9 -3.0802e-14 0)
(2.9 -6.14082e-14 0)
(2.9 -7.1017e-15 0)
(2.9 6.0451e-14 0)
(2.9 2.24361e-14 0)
(2.9 6.50931e-15 0)
(2.9 -3.03033e-14 0)
(2.9 -2.42677e-14 0)
(2.9 -4.45399e-14 0)
(2.9 -6.71629e-14 0)
(2.9 -1.73532e-14 0)
(2.9 -1.38852e-14 0)
(2.9 -3.18198e-14 0)
(2.9 -3.65897e-14 0)
(2.9 -1.24779e-13 0)
(2.9 -1.23589e-13 0)
(2.9 7.91396e-15 0)
(2.9 -7.58535e-14 0)
(2.9 -4.00162e-15 0)
(2.9 -7.17412e-14 0)
(2.9 -3.68677e-14 0)
(2.9 -4.61166e-14 0)
(2.9 -8.76662e-14 0)
(2.9 -5.4497e-14 0)
(2.9 -2.73826e-14 0)
(2.9 -9.67803e-14 0)
(2.9 -9.00909e-14 0)
(2.9 -1.06023e-13 0)
(2.9 -3.57862e-14 0)
(2.9 -6.42689e-14 0)
(2.9 -4.9969e-14 0)
(2.9 -6.50948e-15 0)
(2.9 -2.03693e-14 0)
(2.9 -1.70753e-14 0)
(2.9 4.98383e-14 0)
(2.9 1.40903e-14 0)
(2.9 7.45904e-14 0)
(2.9 6.63726e-14 0)
(2.9 -7.72726e-15 0)
(2.9 -1.70574e-14 0)
(2.9 -4.89697e-14 0)
(2.9 -1.01309e-13 0)
(2.9 -5.62495e-15 0)
(2.9 -2.04755e-14 0)
(2.9 1.93934e-15 0)
(2.9 -5.67471e-15 0)
(2.9 -1.72777e-15 0)
(2.9 1.41729e-14 0)
(2.9 -6.3281e-14 0)
(2.9 -2.28068e-14 0)
(2.9 -4.02022e-14 0)
(2.9 -1.20758e-14 0)
(2.9 2.72625e-14 0)
(2.9 2.0802e-14 0)
(2.9 -3.8096e-14 0)
(2.9 -9.81594e-14 0)
(2.9 -4.36187e-14 0)
(2.9 -6.03919e-14 0)
(2.9 -5.04356e-14 0)
(2.9 -4.53295e-14 0)
(2.9 -3.2782e-14 0)
(2.9 -6.51087e-14 0)
(2.9 -1.93041e-14 0)
(2.9 3.75415e-14 0)
(2.9 -5.47772e-14 0)
(2.9 -8.49248e-14 0)
(2.9 -1.12645e-13 0)
(2.9 1.18183e-14 0)
(2.9 -6.15514e-15 0)
(2.9 3.67659e-16 0)
(2.9 -1.48048e-14 0)
(2.9 -2.84093e-14 0)
(2.9 4.98939e-15 0)
(2.9 -2.80862e-14 0)
(2.9 2.21734e-15 0)
(2.9 9.8258e-15 0)
(2.9 -8.28115e-15 0)
(2.9 -1.20758e-13 0)
(2.9 -2.56599e-14 0)
(2.9 -8.97794e-14 0)
(2.9 -1.88127e-14 0)
(2.9 -1.54032e-14 0)
(2.9 -7.39497e-14 0)
(2.9 -3.62559e-14 0)
(2.9 -3.66756e-14 0)
(2.9 -8.41398e-14 0)
(2.9 -1.07885e-13 0)
(2.9 -9.61768e-14 0)
(2.9 -1.06733e-14 0)
(2.9 -8.42505e-16 0)
(2.9 -3.83425e-14 0)
(2.9 -8.64843e-14 0)
(2.9 -5.52531e-14 0)
(2.9 8.11958e-15 0)
(2.9 9.9481e-14 0)
(2.9 8.41553e-14 0)
(2.9 7.88882e-14 0)
(2.9 2.58416e-14 0)
(2.9 -9.48074e-14 0)
(2.9 -8.05877e-14 0)
(2.9 2.71541e-14 0)
(2.9 -3.92317e-15 0)
(2.9 4.1362e-14 0)
(2.9 -1.52792e-14 0)
(2.9 3.26218e-14 0)
(2.9 -6.62116e-15 0)
(2.9 9.57587e-15 0)
(2.9 6.94212e-14 0)
(2.9 2.73057e-14 0)
(2.9 4.88113e-14 0)
(2.9 -3.32183e-14 0)
(2.9 -1.08233e-14 0)
(2.9 4.64887e-14 0)
(2.9 -3.36777e-15 0)
(2.9 -3.72843e-14 0)
(2.9 -8.10799e-14 0)
(2.9 -6.33432e-14 0)
(2.9 -7.08253e-14 0)
(2.9 -1.02291e-13 0)
(2.9 -7.80296e-14 0)
(2.9 -5.26564e-14 0)
(2.9 -7.94491e-14 0)
(2.9 -2.0226e-14 0)
(2.9 1.84322e-14 0)
(2.9 -8.2313e-14 0)
(2.9 -6.69637e-14 0)
(2.9 -2.13109e-14 0)
(2.9 4.00982e-14 0)
(2.9 -2.79663e-14 0)
(2.9 -7.41313e-15 0)
(2.9 -2.57565e-14 0)
(2.9 1.22418e-14 0)
(2.9 4.15828e-14 0)
(2.9 7.44767e-15 0)
(2.9 3.32153e-14 0)
(2.9 1.02865e-13 0)
(2.9 -5.84041e-14 0)
(2.9 -1.02895e-13 0)
(2.9 -9.80399e-14 0)
(2.9 -6.63303e-14 0)
(2.9 4.50022e-14 0)
(2.9 8.07734e-15 0)
(2.9 3.30965e-14 0)
(2.9 1.9711e-14 0)
(2.9 -7.01166e-14 0)
(2.9 -9.13201e-14 0)
(2.9 -1.3188e-13 0)
(2.9 -6.23344e-14 0)
(2.9 -7.48374e-14 0)
(2.9 -3.85971e-15 0)
(2.9 -1.20901e-14 0)
(2.9 -9.39359e-14 0)
(2.9 -4.35864e-14 0)
(2.9 1.50249e-15 0)
(2.9 4.58964e-14 0)
(2.9 8.96031e-15 0)
(2.9 -5.96852e-14 0)
(2.9 -7.07832e-14 0)
(2.9 -6.54501e-14 0)
(2.9 -6.22797e-14 0)
(2.9 -2.47181e-14 0)
(2.9 1.50726e-14 0)
(2.9 6.65024e-14 0)
(2.9 -6.78149e-15 0)
(2.9 1.55632e-14 0)
(2.9 1.45215e-14 0)
(2.9 -4.00378e-14 0)
(2.9 3.01471e-15 0)
(2.9 5.66261e-15 0)
(2.9 6.57009e-15 0)
(2.9 -7.60034e-14 0)
(2.9 -1.04229e-13 0)
(2.9 -7.84842e-14 0)
(2.9 -7.635e-14 0)
(2.9 -1.1955e-13 0)
(2.9 -5.31206e-14 0)
(2.9 -1.05165e-13 0)
(2.9 -3.08633e-14 0)
(2.9 -8.42683e-14 0)
(2.9 7.45942e-15 0)
(2.9 -5.29346e-15 0)
(2.9 1.59695e-14 0)
(2.9 -2.70593e-14 0)
(2.9 -9.02148e-14 0)
(2.9 -1.08798e-13 0)
(2.9 -1.12902e-14 0)
(2.9 3.90623e-14 0)
(2.9 -1.10869e-14 0)
(2.9 -5.52844e-14 0)
(2.9 -7.16046e-14 0)
(2.9 -5.56492e-14 0)
(2.9 -3.14695e-14 0)
(2.9 1.13509e-14 0)
(2.9 4.52223e-14 0)
(2.9 -6.30777e-15 0)
(2.9 2.27131e-14 0)
(2.9 -3.0831e-14 0)
(2.9 -3.62097e-14 0)
(2.9 -1.35716e-13 0)
(2.9 -4.4321e-14 0)
(2.9 7.68893e-14 0)
(2.9 4.39929e-14 0)
(2.9 1.11936e-13 0)
(2.9 7.1101e-14 0)
(2.9 -5.75252e-14 0)
(2.9 -7.6945e-14 0)
(2.9 -7.12718e-14 0)
(2.9 -7.07785e-14 0)
(2.9 -1.14234e-13 0)
(2.9 -1.94166e-14 0)
(2.9 2.65189e-14 0)
(2.9 -6.15454e-14 0)
(2.9 -2.4676e-14 0)
(2.9 -2.3588e-15 0)
(2.9 -4.05094e-14 0)
(2.9 -5.03348e-14 0)
(2.9 -1.46985e-13 0)
(2.9 -9.12125e-14 0)
(2.9 1.30353e-14 0)
(2.9 -4.46088e-14 0)
(2.9 -5.61977e-14 0)
(2.9 2.92906e-14 0)
(2.9 6.64981e-14 0)
(2.9 1.57926e-15 0)
(2.9 -1.56048e-16 0)
(2.9 2.16657e-14 0)
(2.9 -9.42116e-14 0)
(2.9 -2.45933e-15 0)
(2.9 7.67905e-15 0)
(2.9 -2.98005e-14 0)
(2.9 -1.22198e-13 0)
(2.9 -1.60814e-13 0)
(2.9 -1.55304e-13 0)
(2.9 -7.61861e-14 0)
(2.9 -1.57809e-13 0)
(2.9 -8.32267e-14 0)
(2.9 -1.09403e-13 0)
(2.9 2.34375e-15 0)
(2.9 2.25317e-15 0)
(2.9 9.76355e-14 0)
(2.9 6.21843e-14 0)
(2.9 1.43271e-15 0)
(2.9 -8.10831e-14 0)
(2.9 -7.31957e-14 0)
(2.9 -1.25705e-13 0)
(2.9 -3.50854e-14 0)
(2.9 -3.78615e-15 0)
(2.9 -8.06812e-14 0)
(2.9 -4.35579e-14 0)
(2.9 -1.14346e-13 0)
(2.9 -1.09659e-13 0)
(2.9 -6.4267e-14 0)
(2.9 -2.30985e-14 0)
(2.9 -3.4437e-14 0)
(2.9 -5.23909e-14 0)
(2.9 -5.22374e-14 0)
(2.9 -6.71886e-15 0)
(2.9 4.34941e-14 0)
(2.9 -1.06353e-13 0)
(2.9 -1.45346e-14 0)
(2.9 2.03786e-14 0)
(2.9 1.04675e-13 0)
(2.9 1.44857e-13 0)
(2.9 2.92824e-14 0)
(2.9 3.96438e-15 0)
(2.9 -3.68275e-14 0)
(2.9 -3.56395e-14 0)
(2.9 -4.98441e-14 0)
(2.9 -1.37399e-13 0)
(2.9 -1.15222e-13 0)
(2.9 -3.31823e-14 0)
(2.9 9.58906e-16 0)
(2.9 3.62146e-14 0)
(2.9 1.24028e-14 0)
(2.9 -9.55947e-14 0)
(2.9 -1.07678e-13 0)
(2.9 -6.50968e-14 0)
(2.9 -1.38626e-14 0)
(2.9 5.34802e-14 0)
(2.9 -2.5319e-14 0)
(2.9 -1.05703e-14 0)
(2.9 4.03009e-14 0)
(2.9 5.33217e-14 0)
(2.9 3.98771e-14 0)
(2.9 5.78607e-14 0)
(2.9 6.64625e-15 0)
(2.9 7.18906e-15 0)
(2.9 4.80574e-14 0)
(2.9 3.98598e-14 0)
(2.9 -1.42566e-14 0)
(2.9 -6.76434e-14 0)
(2.9 -5.42717e-14 0)
(2.9 -5.98403e-14 0)
(2.9 3.18445e-14 0)
(2.9 -2.82129e-14 0)
(2.9 -3.20624e-14 0)
(2.9 -3.36185e-14 0)
(2.9 4.14675e-14 0)
(2.9 4.84789e-14 0)
(2.9 8.02805e-14 0)
(2.9 5.07203e-14 0)
(2.9 -2.8374e-14 0)
(2.9 -7.43013e-14 0)
(2.9 -3.60647e-14 0)
(2.9 -5.49228e-14 0)
(2.9 -7.82476e-14 0)
(2.9 6.31811e-15 0)
(2.9 -5.11976e-14 0)
(2.9 -7.51692e-14 0)
(2.9 -1.07985e-13 0)
(2.9 -7.67302e-14 0)
(2.9 -4.76636e-14 0)
(2.9 -4.1028e-14 0)
(2.9 -3.32506e-14 0)
(2.9 -4.59214e-14 0)
(2.9 -4.62492e-14 0)
(2.9 1.76445e-14 0)
(2.9 6.72097e-14 0)
(2.9 1.07144e-14 0)
(2.9 -1.5944e-14 0)
(2.9 -5.73145e-14 0)
(2.9 3.3477e-14 0)
(2.9 3.0901e-14 0)
(2.9 -2.39893e-14 0)
(2.9 6.49567e-14 0)
(2.9 1.475e-14 0)
(2.9 -1.6175e-14 0)
(2.9 -8.54516e-14 0)
(2.9 -1.2767e-13 0)
(2.9 -1.31557e-13 0)
(2.9 -7.75134e-14 0)
(2.9 9.14605e-15 0)
(2.9 4.01693e-14 0)
(2.9 5.2847e-14 0)
(2.9 -5.42201e-14 0)
(2.9 -1.11684e-13 0)
(2.9 1.79667e-14 0)
(2.9 8.6153e-14 0)
(2.9 -2.02747e-15 0)
(2.9 7.13558e-15 0)
(2.9 6.2657e-14 0)
(2.9 2.89891e-14 0)
(2.9 1.04233e-13 0)
(2.9 9.74193e-14 0)
(2.9 9.21357e-14 0)
(2.9 2.62734e-14 0)
(2.9 7.38637e-14 0)
(2.9 5.11194e-15 0)
(2.9 3.08975e-14 0)
(2.9 -1.43484e-14 0)
(2.9 -6.10061e-15 0)
(2.9 2.69172e-14 0)
(2.9 6.30254e-14 0)
(2.9 3.56008e-14 0)
(2.9 7.93504e-14 0)
(2.9 6.58363e-14 0)
(2.9 1.5571e-14 0)
(2.9 6.39066e-14 0)
(2.9 9.43295e-14 0)
(2.9 3.34133e-14 0)
(2.9 3.5546e-14 0)
(2.9 3.59211e-14 0)
(2.9 -3.29353e-14 0)
(2.9 -1.35707e-14 0)
(2.9 5.98565e-14 0)
(2.9 1.9168e-14 0)
(2.9 2.268e-14 0)
(2.9 4.51721e-14 0)
(2.9 -6.66508e-14 0)
(2.9 -7.77857e-14 0)
(2.9 1.86162e-14 0)
(2.9 -2.8896e-14 0)
(2.9 -3.72251e-14 0)
(2.9 -1.01644e-15 0)
(2.9 -3.10251e-14 0)
(2.9 -5.56305e-14 0)
(2.9 -2.28044e-14 0)
(2.9 2.76147e-14 0)
(2.9 6.31027e-14 0)
(2.9 4.57655e-14 0)
(2.9 1.75372e-15 0)
(2.9 -3.46451e-14 0)
(2.9 -7.89147e-14 0)
(2.9 -1.91592e-15 0)
(2.9 7.84609e-14 0)
(2.9 2.04421e-14 0)
(2.9 1.33457e-14 0)
(2.9 -5.6922e-14 0)
(2.9 -5.8303e-14 0)
(2.9 -3.40738e-14 0)
(2.9 -2.62078e-14 0)
(2.9 5.66489e-14 0)
(2.9 4.85984e-14 0)
(2.9 1.05533e-13 0)
(2.9 2.67799e-14 0)
(2.9 -5.97191e-14 0)
(2.9 -3.50313e-14 0)
(2.9 3.45607e-14 0)
(2.9 -2.90035e-14 0)
(2.9 -1.24552e-14 0)
(2.9 -1.36346e-14 0)
(2.9 1.86758e-14 0)
(2.9 7.61844e-14 0)
(2.9 1.04758e-13 0)
(2.9 7.29472e-14 0)
(2.9 2.5827e-14 0)
(2.9 9.84716e-15 0)
(2.9 -4.61437e-14 0)
(2.9 4.57737e-14 0)
(2.9 -1.83927e-14 0)
(2.9 4.6292e-14 0)
(2.9 5.15436e-14 0)
(2.9 5.22428e-14 0)
(2.9 9.99299e-15 0)
(2.9 2.60715e-14 0)
(2.9 8.39972e-14 0)
(2.9 9.28871e-14 0)
(2.9 7.67429e-14 0)
(2.9 8.64685e-14 0)
(2.9 2.51595e-14 0)
(2.9 1.56812e-14 0)
(2.9 8.54546e-14 0)
(2.9 -1.18009e-14 0)
(2.9 -2.13418e-14 0)
(2.9 8.18862e-14 0)
(2.9 9.17133e-14 0)
(2.9 1.41384e-14 0)
(2.9 8.24499e-14 0)
(2.9 1.23668e-14 0)
(2.9 -4.0521e-15 0)
(2.9 2.74896e-14 0)
(2.9 -1.06829e-14 0)
(2.9 -5.9177e-14 0)
(2.9 -6.25335e-14 0)
(2.9 -4.73836e-15 0)
(2.9 1.5027e-14 0)
(2.9 -3.70545e-14 0)
(2.9 -1.81934e-14 0)
(2.9 8.44047e-14 0)
(2.9 5.96663e-14 0)
(2.9 -4.72945e-14 0)
(2.9 -8.13923e-14 0)
(2.9 -2.38237e-14 0)
(2.9 7.56101e-14 0)
(2.9 8.0575e-14 0)
(2.9 -8.9995e-15 0)
(2.9 3.20796e-14 0)
(2.9 4.48379e-16 0)
(2.9 3.07753e-14 0)
(2.9 3.72143e-14 0)
(2.9 2.31231e-15 0)
(2.9 8.62426e-14 0)
(2.9 8.13078e-15 0)
(2.9 6.12807e-14 0)
(2.9 9.36731e-14 0)
(2.9 -4.37102e-15 0)
(2.9 -6.58336e-14 0)
(2.9 -7.25934e-16 0)
(2.9 1.24331e-14 0)
(2.9 1.18278e-14 0)
(2.9 -6.5562e-14 0)
(2.9 -2.97771e-14 0)
(2.9 -3.90135e-14 0)
(2.9 4.90792e-14 0)
(2.9 -1.55184e-14 0)
(2.9 -2.26366e-14 0)
(2.9 -2.40619e-14 0)
(2.9 -1.08817e-13 0)
(2.9 -4.94771e-14 0)
(2.9 -4.64565e-14 0)
(2.9 3.23343e-14 0)
(2.9 9.59596e-14 0)
(2.9 5.73003e-14 0)
(2.9 -1.43289e-14 0)
(2.9 -6.31393e-16 0)
(2.9 6.43016e-14 0)
(2.9 1.06198e-13 0)
(2.9 2.21117e-14 0)
(2.9 7.03238e-14 0)
(2.9 2.03786e-14 0)
(2.9 -2.17999e-14 0)
(2.9 3.83744e-14 0)
(2.9 -2.65289e-14 0)
(2.9 -2.56314e-16 0)
(2.9 3.44091e-14 0)
(2.9 4.78535e-14 0)
(2.9 -4.50952e-14 0)
(2.9 1.66249e-14 0)
(2.9 -2.56763e-15 0)
(2.9 -1.01712e-17 0)
(2.9 -6.35319e-15 0)
(2.9 1.08364e-15 0)
(2.9 -3.58873e-14 0)
(2.9 -1.1538e-13 0)
(2.9 4.65951e-14 0)
(2.9 8.91237e-14 0)
(2.9 -2.11077e-14 0)
(2.9 2.22314e-14 0)
(2.9 2.21942e-14 0)
(2.9 -1.43676e-14 0)
(2.9 -5.43525e-14 0)
(2.9 -1.18331e-13 0)
(2.9 -7.54968e-15 0)
(2.9 8.01543e-14 0)
(2.9 5.91461e-14 0)
(2.9 2.41483e-14 0)
(2.9 7.08196e-14 0)
(2.9 6.65215e-14 0)
(2.9 5.42675e-14 0)
(2.9 -2.81078e-15 0)
(2.9 -1.97059e-14 0)
(2.9 3.98043e-14 0)
(2.9 -2.62315e-14 0)
(2.9 -1.65236e-14 0)
(2.9 2.82775e-14 0)
(2.9 2.70482e-14 0)
(2.9 -1.78785e-14 0)
(2.9 -2.2792e-14 0)
(2.9 -2.68215e-14 0)
(2.9 -5.64815e-16 0)
(2.9 -6.51554e-14 0)
(2.9 -2.33904e-14 0)
(2.9 -6.60297e-14 0)
(2.9 -1.04113e-14 0)
(2.9 -4.89875e-14 0)
(2.9 -2.53667e-14 0)
(2.9 1.19718e-15 0)
(2.9 -8.80335e-14 0)
(2.9 -9.22837e-14 0)
(2.9 -1.79351e-15 0)
(2.9 4.45049e-14 0)
(2.9 6.8108e-14 0)
(2.9 1.56049e-14 0)
(2.9 2.11321e-14 0)
(2.9 2.74722e-14 0)
(2.9 4.56485e-15 0)
(2.9 7.94125e-14 0)
(2.9 -3.17449e-14 0)
(2.9 1.61493e-14 0)
(2.9 1.88567e-14 0)
(2.9 -1.43127e-15 0)
(2.9 -4.64144e-14 0)
(2.9 8.0483e-15 0)
(2.9 -2.05759e-14 0)
(2.9 -4.74135e-14 0)
(2.9 -1.27999e-15 0)
(2.9 -6.47809e-14 0)
(2.9 -1.8386e-14 0)
(2.9 2.3627e-14 0)
(2.9 6.33019e-14 0)
(2.9 6.84898e-15 0)
(2.9 4.96148e-15 0)
(2.9 -2.84441e-14 0)
(2.9 -5.62954e-14 0)
(2.9 3.84533e-14 0)
(2.9 1.11951e-13 0)
(2.9 5.79414e-14 0)
(2.9 7.81685e-15 0)
(2.9 -3.52472e-14 0)
(2.9 2.01272e-14 0)
(2.9 6.27911e-16 0)
(2.9 -7.24677e-15 0)
(2.9 -1.15354e-14 0)
(2.9 1.21788e-15 0)
(2.9 3.95941e-15 0)
(2.9 -4.37911e-15 0)
(2.9 8.1628e-14 0)
(2.9 3.33729e-14 0)
(2.9 5.19133e-14 0)
(2.9 2.30588e-14 0)
(2.9 1.80571e-14 0)
(2.9 -2.45977e-14 0)
(2.9 -1.18407e-14 0)
(2.9 -2.38925e-14 0)
(2.9 -2.26715e-14 0)
(2.9 6.07149e-14 0)
(2.9 2.55787e-14 0)
(2.9 -1.59543e-14 0)
(2.9 -5.07427e-15 0)
(2.9 -3.8974e-14 0)
(2.9 -4.88888e-14 0)
(2.9 2.51288e-14 0)
(2.9 -3.30762e-14 0)
(2.9 -8.38209e-14 0)
(2.9 -3.80214e-14 0)
(2.9 3.37754e-14 0)
(2.9 1.10558e-14 0)
(2.9 6.02118e-15 0)
(2.9 -1.4133e-14 0)
(2.9 1.87762e-14 0)
(2.9 4.84106e-14 0)
(2.9 4.03435e-14 0)
(2.9 2.10007e-14 0)
(2.9 2.7529e-14 0)
(2.9 5.39537e-14 0)
(2.9 1.49848e-14 0)
(2.9 3.99461e-14 0)
(2.9 -2.23732e-14 0)
(2.9 6.36917e-15 0)
(2.9 -1.39807e-14 0)
(2.9 -6.94905e-15 0)
(2.9 2.0134e-14 0)
(2.9 4.39289e-14 0)
(2.9 -5.33587e-14 0)
(2.9 -6.90824e-14 0)
(2.9 -7.34397e-15 0)
(2.9 -2.02272e-14 0)
(2.9 -1.7258e-14 0)
(2.9 6.50083e-14 0)
(2.9 6.09593e-14 0)
(2.9 8.60867e-14 0)
(2.9 3.29859e-14 0)
(2.9 -3.65558e-14 0)
(2.9 3.33096e-14 0)
(2.9 3.7713e-14 0)
(2.9 9.09973e-14 0)
(2.9 -5.19615e-14 0)
(2.9 -4.99823e-14 0)
(2.9 -5.93347e-16 0)
(2.9 6.44548e-14 0)
(2.9 1.48246e-14 0)
(2.9 1.42375e-16 0)
(2.9 4.25764e-14 0)
(2.9 -4.1355e-14 0)
(2.9 -3.08608e-14 0)
(2.9 5.68311e-14 0)
(2.9 8.76379e-14 0)
(2.9 6.74677e-14 0)
(2.9 1.20086e-13 0)
(2.9 7.41647e-14 0)
(2.9 3.25939e-15 0)
(2.9 -9.0013e-14 0)
(2.9 -7.98286e-16 0)
(2.9 2.92757e-14 0)
(2.9 1.01969e-14 0)
(2.9 6.26159e-14 0)
(2.9 8.81613e-14 0)
(2.9 1.89986e-14 0)
(2.9 2.49734e-14 0)
(2.9 -2.94355e-14 0)
(2.9 3.21221e-14 0)
(2.9 -8.46786e-15 0)
(2.9 -1.01583e-13 0)
(2.9 -1.70384e-13 0)
(2.9 -4.72711e-14 0)
(2.9 7.33244e-14 0)
(2.9 6.4826e-14 0)
(2.9 5.41094e-14 0)
(2.9 6.55555e-14 0)
(2.9 8.67432e-14 0)
(2.9 3.2867e-14 0)
(2.9 7.97603e-14 0)
(2.9 6.27658e-14 0)
(2.9 -4.87943e-15 0)
(2.9 5.99357e-14 0)
(2.9 4.00609e-16 0)
(2.9 5.9449e-14 0)
(2.9 1.39361e-14 0)
(2.9 -2.50536e-14 0)
(2.9 -5.29993e-14 0)
(2.9 -5.18771e-15 0)
(2.9 7.59199e-14 0)
(2.9 8.66958e-14 0)
(2.9 -6.98659e-15 0)
(2.9 4.77141e-15 0)
(2.9 -2.01386e-14 0)
(2.9 1.22277e-14 0)
(2.9 8.83018e-15 0)
(2.9 2.79428e-14 0)
(2.9 9.08032e-14 0)
(2.9 1.05937e-13 0)
(2.9 -7.82881e-15 0)
(2.9 2.28873e-15 0)
(2.9 1.27803e-13 0)
(2.9 1.14983e-13 0)
(2.9 1.00652e-13 0)
(2.9 -1.23683e-13 0)
(2.9 -1.30033e-13 0)
(2.9 -4.40996e-14 0)
(2.9 3.79453e-14 0)
(2.9 2.24794e-14 0)
(2.9 -1.07686e-14 0)
(2.9 1.06831e-14 0)
(2.9 -1.31167e-14 0)
(2.9 1.67718e-14 0)
(2.9 9.7654e-14 0)
(2.9 4.41841e-14 0)
(2.9 5.22097e-14 0)
(2.9 6.41824e-14 0)
(2.9 4.18595e-14 0)
(2.9 -4.81407e-14 0)
(2.9 -2.64435e-14 0)
(2.9 5.30301e-14 0)
(2.9 8.18977e-14 0)
(2.9 3.51937e-14 0)
(2.9 6.45333e-14 0)
(2.9 7.85279e-14 0)
(2.9 8.60891e-14 0)
(2.9 2.41027e-14 0)
(2.9 6.03022e-14 0)
(2.9 5.8161e-14 0)
(2.9 -2.7998e-14 0)
(2.9 -8.18121e-14 0)
(2.9 -1.2785e-13 0)
(2.9 -3.15857e-14 0)
(2.9 1.94011e-14 0)
(2.9 6.53493e-14 0)
(2.9 8.27148e-15 0)
(2.9 3.83282e-15 0)
(2.9 7.20984e-14 0)
(2.9 3.35002e-14 0)
(2.9 6.73825e-14 0)
(2.9 -8.72779e-15 0)
(2.9 -6.92289e-14 0)
(2.9 -5.29489e-15 0)
(2.9 2.90627e-15 0)
(2.9 5.05115e-14 0)
(2.9 3.1482e-14 0)
(2.9 -3.03443e-14 0)
(2.9 -7.5702e-14 0)
(2.9 -3.13176e-14 0)
(2.9 -4.56872e-14 0)
(2.9 2.58732e-14 0)
(2.9 -2.28578e-14 0)
(2.9 2.05318e-14 0)
(2.9 -6.68291e-14 0)
(2.9 -2.45165e-14 0)
(2.9 -1.70013e-14 0)
(2.9 -9.6621e-15 0)
(2.9 5.23877e-14 0)
(2.9 -7.88088e-15 0)
(2.9 4.84097e-15 0)
(2.9 5.12557e-14 0)
(2.9 7.31542e-14 0)
(2.9 3.42946e-14 0)
(2.9 1.05364e-13 0)
(2.9 -7.1844e-14 0)
(2.9 -9.34996e-14 0)
(2.9 -1.06776e-14 0)
(2.9 2.29242e-14 0)
(2.9 4.61088e-14 0)
(2.9 3.10765e-14 0)
(2.9 -2.81042e-14 0)
(2.9 1.37857e-15 0)
(2.9 3.30435e-14 0)
(2.9 6.8816e-14 0)
(2.9 -3.07471e-14 0)
(2.9 1.41862e-14 0)
(2.9 9.78435e-15 0)
(2.9 8.29654e-14 0)
(2.9 7.89833e-14 0)
(2.9 1.9229e-14 0)
(2.9 2.53426e-14 0)
(2.9 4.39396e-14 0)
(2.9 6.79772e-14 0)
(2.9 1.04502e-13 0)
(2.9 8.64435e-14 0)
(2.9 5.0986e-14 0)
(2.9 1.41776e-14 0)
(2.9 8.08456e-14 0)
(2.9 5.09099e-14 0)
(2.9 2.29014e-14 0)
(2.9 1.18837e-14 0)
(2.9 6.30579e-14 0)
(2.9 1.15657e-14 0)
(2.9 2.79815e-14 0)
(2.9 3.31532e-15 0)
(2.9 7.40038e-14 0)
(2.9 -1.41125e-14 0)
(2.9 3.8933e-14 0)
(2.9 5.8051e-14 0)
(2.9 -2.73229e-14 0)
(2.9 -6.37395e-14 0)
(2.9 -4.44081e-14 0)
(2.9 -3.88445e-15 0)
(2.9 -1.83485e-14 0)
(2.9 -3.58991e-14 0)
(2.9 1.33285e-14 0)
(2.9 -5.52019e-14 0)
(2.9 -1.01305e-14 0)
(2.9 -6.28502e-14 0)
(2.9 -1.2545e-13 0)
(2.9 -4.19494e-14 0)
(2.9 -7.94948e-14 0)
(2.9 1.30583e-14 0)
(2.9 -5.02508e-14 0)
(2.9 -1.73203e-14 0)
(2.9 -6.1779e-14 0)
(2.9 3.00864e-15 0)
(2.9 9.56991e-15 0)
(2.9 -9.43477e-14 0)
(2.9 -2.63453e-15 0)
(2.9 7.58741e-14 0)
(2.9 4.20963e-14 0)
(2.9 -4.4007e-14 0)
(2.9 -5.70448e-14 0)
(2.9 5.4915e-14 0)
(2.9 -5.36041e-14 0)
(2.9 4.37125e-14 0)
(2.9 -9.70323e-15 0)
(2.9 2.88246e-14 0)
(2.9 4.553e-14 0)
(2.9 8.5524e-15 0)
(2.9 1.00652e-14 0)
(2.9 6.81467e-15 0)
(2.9 -1.31851e-14 0)
(2.9 5.69474e-14 0)
(2.9 2.10646e-14 0)
(2.9 1.46744e-14 0)
(2.9 1.08046e-13 0)
(2.9 1.26448e-13 0)
(2.9 7.66317e-14 0)
(2.9 -7.81876e-14 0)
(2.9 -6.12765e-15 0)
(2.9 1.5158e-13 0)
(2.9 7.36204e-14 0)
(2.9 2.64399e-14 0)
(2.9 -1.60168e-14 0)
(2.9 4.50824e-14 0)
(2.9 1.59115e-14 0)
(2.9 -2.87811e-14 0)
(2.9 1.43767e-14 0)
(2.9 9.5406e-14 0)
(2.9 1.68668e-13 0)
(2.9 4.13086e-14 0)
(2.9 2.62066e-14 0)
(2.9 -1.93265e-14 0)
(2.9 9.62033e-14 0)
(2.9 2.16543e-14 0)
(2.9 -5.08133e-14 0)
(2.9 5.2539e-14 0)
(2.9 -7.96249e-14 0)
(2.9 -4.053e-14 0)
(2.9 5.76191e-14 0)
(2.9 -5.85053e-14 0)
(2.9 -4.261e-14 0)
(2.9 -1.01915e-13 0)
(2.9 -3.95192e-14 0)
(2.9 -7.20158e-14 0)
(2.9 4.37913e-14 0)
(2.9 1.55066e-14 0)
(2.9 -3.97065e-14 0)
(2.9 -5.74831e-14 0)
(2.9 -6.47706e-14 0)
(2.9 -1.56804e-14 0)
(2.9 1.62926e-14 0)
(2.9 3.37946e-14 0)
(2.9 -3.11932e-14 0)
(2.9 2.21592e-14 0)
(2.9 -5.6263e-14 0)
(2.9 -8.79972e-14 0)
(2.9 1.07424e-14 0)
(2.9 4.22385e-14 0)
(2.9 7.317e-14 0)
(2.9 -2.56225e-14 0)
(2.9 -1.76463e-13 0)
(2.9 -2.17059e-14 0)
(2.9 -3.32582e-14 0)
(2.9 1.20421e-16 0)
(2.9 -7.18553e-14 0)
(2.9 2.45577e-15 0)
(2.9 2.11302e-14 0)
(2.9 6.09485e-14 0)
(2.9 4.06677e-14 0)
(2.9 1.16106e-13 0)
(2.9 3.71555e-14 0)
(2.9 1.71635e-14 0)
(2.9 1.43029e-14 0)
(2.9 2.41637e-14 0)
(2.9 3.3204e-14 0)
(2.9 5.22164e-14 0)
(2.9 2.70781e-14 0)
(2.9 -3.23501e-14 0)
(2.9 3.01724e-14 0)
(2.9 4.6728e-14 0)
(2.9 1.67128e-14 0)
(2.9 7.11524e-15 0)
(2.9 -1.2993e-14 0)
(2.9 3.30151e-14 0)
(2.9 6.32916e-14 0)
(2.9 3.53875e-14 0)
(2.9 2.14836e-14 0)
(2.9 6.84772e-14 0)
(2.9 8.73629e-14 0)
(2.9 4.00411e-14 0)
(2.9 3.53867e-14 0)
(2.9 4.71641e-14 0)
(2.9 8.25667e-14 0)
(2.9 1.92444e-14 0)
(2.9 -1.40937e-15 0)
(2.9 5.08998e-14 0)
(2.9 -1.6808e-14 0)
(2.9 -3.61283e-14 0)
(2.9 6.64155e-14 0)
(2.9 -2.47402e-14 0)
(2.9 -1.73092e-14 0)
(2.9 -6.31795e-14 0)
(2.9 -1.71871e-15 0)
(2.9 -1.95859e-14 0)
(2.9 2.12078e-14 0)
(2.9 2.61966e-14 0)
(2.9 2.44437e-14 0)
(2.9 -2.82921e-14 0)
(2.9 -1.25397e-15 0)
(2.9 3.38655e-14 0)
(2.9 3.23399e-14 0)
(2.9 -3.44089e-15 0)
(2.9 -4.82742e-15 0)
(2.9 2.28191e-14 0)
(2.9 -4.5284e-14 0)
(2.9 1.01086e-14 0)
(2.9 4.39054e-14 0)
(2.9 1.96318e-14 0)
(2.9 4.54958e-14 0)
(2.9 -4.7106e-14 0)
(2.9 -1.48409e-13 0)
(2.9 -5.83968e-14 0)
(2.9 -2.59203e-14 0)
(2.9 -5.24333e-14 0)
(2.9 -1.07949e-13 0)
(2.9 -3.34901e-14 0)
(2.9 1.47503e-14 0)
(2.9 -8.83213e-15 0)
(2.9 1.54673e-14 0)
(2.9 8.0143e-14 0)
(2.9 3.16111e-14 0)
(2.9 -4.19661e-14 0)
(2.9 -1.05481e-14 0)
(2.9 -2.72018e-14 0)
(2.9 -6.13408e-14 0)
(2.9 -2.68183e-14 0)
(2.9 -1.34414e-14 0)
(2.9 2.04168e-14 0)
(2.9 1.20405e-14 0)
(2.9 -4.83776e-14 0)
(2.9 2.71893e-14 0)
(2.9 3.31757e-14 0)
(2.9 -1.41396e-14 0)
(2.9 2.72236e-14 0)
(2.9 8.03363e-14 0)
(2.9 1.15147e-13 0)
(2.9 5.31548e-14 0)
(2.9 -2.52824e-14 0)
(2.9 -7.18375e-14 0)
(2.9 3.04742e-14 0)
(2.9 8.42832e-14 0)
(2.9 8.7833e-14 0)
(2.9 9.01105e-14 0)
(2.9 3.05581e-14 0)
(2.9 3.26363e-14 0)
(2.9 7.13717e-14 0)
(2.9 4.64473e-14 0)
(2.9 -9.98143e-15 0)
(2.9 -1.98903e-15 0)
(2.9 3.53878e-14 0)
(2.9 7.27569e-14 0)
(2.9 3.00937e-14 0)
(2.9 2.89132e-14 0)
(2.9 6.31791e-14 0)
(2.9 -1.04318e-14 0)
(2.9 -1.56907e-14 0)
(2.9 4.51638e-14 0)
(2.9 2.39432e-15 0)
(2.9 4.77423e-14 0)
(2.9 7.04141e-15 0)
(2.9 4.61131e-14 0)
(2.9 6.57861e-15 0)
(2.9 9.98806e-14 0)
(2.9 6.84028e-14 0)
(2.9 7.39776e-14 0)
(2.9 1.0246e-13 0)
(2.9 1.17978e-13 0)
(2.9 9.83292e-14 0)
(2.9 4.28844e-14 0)
(2.9 -4.03318e-14 0)
(2.9 -9.51616e-14 0)
(2.9 -7.53582e-14 0)
(2.9 -1.9891e-14 0)
(2.9 -9.83173e-14 0)
(2.9 -1.17966e-13 0)
(2.9 -7.38536e-14 0)
(2.9 -9.03121e-14 0)
(2.9 -4.39011e-14 0)
(2.9 -8.60255e-14 0)
(2.9 -4.57414e-15 0)
(2.9 3.71296e-15 0)
(2.9 -1.11484e-14 0)
(2.9 1.86843e-14 0)
(2.9 2.76813e-15 0)
(2.9 -5.80078e-14 0)
(2.9 -4.39076e-14 0)
(2.9 1.34038e-15 0)
(2.9 4.92713e-14 0)
(2.9 -3.7769e-14 0)
(2.9 -1.06045e-13 0)
(2.9 1.68031e-14 0)
(2.9 9.91043e-14 0)
(2.9 -1.13677e-14 0)
(2.9 -1.18816e-14 0)
(2.9 6.45507e-14 0)
(2.9 3.96139e-14 0)
(2.9 5.98686e-14 0)
(2.9 -4.573e-14 0)
(2.9 -1.32773e-13 0)
(2.9 -1.4201e-14 0)
(2.9 3.7968e-14 0)
(2.9 4.82845e-14 0)
(2.9 6.22017e-14 0)
(2.9 4.07643e-14 0)
(2.9 1.83811e-14 0)
(2.9 1.22903e-14 0)
(2.9 -6.68485e-15 0)
(2.9 8.98348e-15 0)
(2.9 -4.36072e-14 0)
(2.9 9.09949e-14 0)
(2.9 1.66656e-13 0)
(2.9 6.30223e-14 0)
(2.9 -6.07242e-16 0)
(2.9 4.42863e-14 0)
(2.9 8.33828e-15 0)
(2.9 -3.0005e-14 0)
(2.9 4.07506e-14 0)
(2.9 -3.01536e-14 0)
(2.9 7.96406e-14 0)
(2.9 1.15101e-14 0)
(2.9 1.06015e-13 0)
(2.9 1.04533e-13 0)
(2.9 1.1278e-13 0)
(2.9 1.19176e-13 0)
(2.9 1.09626e-13 0)
(2.9 1.10321e-13 0)
(2.9 1.58545e-13 0)
(2.9 1.62411e-13 0)
(2.9 7.74834e-14 0)
(2.9 -2.7793e-14 0)
(2.9 2.81582e-14 0)
(2.9 -1.20409e-14 0)
(2.9 4.17012e-15 0)
(2.9 5.00565e-15 0)
(2.9 -1.57304e-14 0)
(2.9 -7.56977e-14 0)
(2.9 -1.35928e-13 0)
(2.9 -3.96552e-14 0)
(2.9 -1.99668e-14 0)
(2.9 -7.71809e-14 0)
(2.9 -4.41512e-15 0)
(2.9 4.46443e-14 0)
(2.9 1.43276e-14 0)
(2.9 -1.59141e-14 0)
(2.9 -7.96762e-14 0)
(2.9 -1.82996e-14 0)
(2.9 -1.42854e-14 0)
(2.9 4.9489e-14 0)
(2.9 5.34286e-15 0)
(2.9 -6.47546e-14 0)
(2.9 -5.22805e-14 0)
(2.9 6.73605e-14 0)
(2.9 2.45739e-14 0)
(2.9 -3.20849e-14 0)
(2.9 -1.58874e-14 0)
(2.9 -3.29496e-14 0)
(2.9 -2.81085e-14 0)
(2.9 -6.26909e-14 0)
(2.9 -1.27476e-13 0)
(2.9 -3.47566e-14 0)
(2.9 -2.45618e-14 0)
(2.9 8.35628e-15 0)
(2.9 -3.86986e-14 0)
(2.9 1.23333e-14 0)
(2.9 5.76044e-15 0)
(2.9 -6.47879e-14 0)
(2.9 2.36888e-14 0)
(2.9 7.65753e-14 0)
(2.9 1.12269e-14 0)
(2.9 5.49964e-14 0)
(2.9 1.17876e-13 0)
(2.9 2.70881e-14 0)
(2.9 -5.02909e-14 0)
(2.9 1.80055e-14 0)
(2.9 -3.00846e-14 0)
(2.9 4.15782e-14 0)
(2.9 1.1688e-16 0)
(2.9 1.37073e-15 0)
(2.9 4.81608e-14 0)
(2.9 -8.84438e-15 0)
(2.9 3.17111e-14 0)
(2.9 8.17291e-14 0)
(2.9 7.79621e-14 0)
(2.9 5.7513e-14 0)
(2.9 3.36413e-14 0)
(2.9 2.45797e-15 0)
(2.9 1.29667e-14 0)
(2.9 7.95622e-14 0)
(2.9 3.98372e-14 0)
(2.9 5.98356e-14 0)
(2.9 1.0889e-13 0)
(2.9 5.28393e-14 0)
(2.9 6.13187e-14 0)
(2.9 7.39581e-14 0)
(2.9 8.09701e-14 0)
(2.9 -3.79557e-14 0)
(2.9 -5.45709e-14 0)
(2.9 -6.13083e-14 0)
(2.9 7.9834e-15 0)
(2.9 -8.11383e-14 0)
(2.9 3.25184e-14 0)
(2.9 4.87055e-15 0)
(2.9 8.27924e-15 0)
(2.9 -7.00423e-14 0)
(2.9 -8.45551e-14 0)
(2.9 2.84462e-14 0)
(2.9 5.61937e-14 0)
(2.9 2.84178e-14 0)
(2.9 -4.27527e-15 0)
(2.9 -4.03869e-14 0)
(2.9 -5.13546e-14 0)
(2.9 7.00119e-14 0)
(2.9 2.50761e-14 0)
(2.9 -3.61958e-14 0)
(2.9 -9.59413e-14 0)
(2.9 -6.63347e-14 0)
(2.9 -5.67008e-14 0)
(2.9 -8.19023e-14 0)
(2.9 -7.3782e-14 0)
(2.9 -1.39165e-15 0)
(2.9 -6.08833e-14 0)
(2.9 -5.41059e-15 0)
(2.9 -7.10933e-14 0)
(2.9 -1.84911e-14 0)
(2.9 9.18369e-15 0)
(2.9 -7.49021e-14 0)
(2.9 5.86623e-14 0)
(2.9 1.35108e-13 0)
(2.9 3.28929e-14 0)
(2.9 5.45305e-14 0)
(2.9 -2.81589e-15 0)
(2.9 -2.09182e-14 0)
(2.9 -2.43043e-14 0)
(2.9 4.49845e-15 0)
(2.9 -6.53325e-14 0)
(2.9 3.33367e-15 0)
(2.9 -1.72772e-14 0)
(2.9 5.64862e-14 0)
(2.9 3.25115e-15 0)
(2.9 -8.23234e-15 0)
(2.9 -4.43407e-14 0)
(2.9 2.2186e-14 0)
(2.9 1.70945e-14 0)
(2.9 -2.22976e-14 0)
(2.9 -4.26409e-14 0)
(2.9 -8.15513e-14 0)
(2.9 -7.34256e-14 0)
(2.9 -2.84934e-14 0)
(2.9 -6.09498e-14 0)
(2.9 5.03744e-14 0)
(2.9 1.36003e-13 0)
(2.9 4.2582e-15 0)
(2.9 5.94215e-14 0)
(2.9 9.04966e-14 0)
(2.9 9.86353e-14 0)
(2.9 2.04374e-14 0)
(2.9 3.79999e-14 0)
(2.9 -5.26179e-14 0)
(2.9 -1.8711e-15 0)
(2.9 -6.88564e-14 0)
(2.9 -1.32578e-14 0)
(2.9 -2.96391e-14 0)
(2.9 -1.34978e-14 0)
(2.9 -9.28698e-14 0)
(2.9 -8.89962e-14 0)
(2.9 3.70607e-14 0)
(2.9 6.19784e-14 0)
(2.9 -2.84458e-14 0)
(2.9 -6.65457e-14 0)
(2.9 -4.58916e-14 0)
(2.9 -3.16155e-15 0)
(2.9 4.91246e-14 0)
(2.9 3.72701e-14 0)
(2.9 -2.94533e-14 0)
(2.9 -1.2126e-13 0)
(2.9 -6.32079e-14 0)
(2.9 -1.8143e-14 0)
(2.9 -6.1907e-14 0)
(2.9 2.44397e-14 0)
(2.9 4.60606e-14 0)
(2.9 -4.6891e-14 0)
(2.9 -4.28414e-14 0)
(2.9 -2.51114e-14 0)
(2.9 -1.2422e-14 0)
(2.9 4.69591e-14 0)
(2.9 -5.17236e-14 0)
(2.9 3.10864e-14 0)
(2.9 9.70451e-14 0)
(2.9 5.73004e-14 0)
(2.9 1.0343e-14 0)
(2.9 -4.6797e-14 0)
(2.9 -1.54814e-14 0)
(2.9 3.19881e-14 0)
(2.9 5.41261e-14 0)
(2.9 -1.76162e-14 0)
(2.9 -4.50445e-14 0)
(2.9 -2.03479e-14 0)
(2.9 6.55144e-14 0)
(2.9 1.30726e-14 0)
(2.9 3.55993e-14 0)
(2.9 -3.74535e-14 0)
(2.9 2.83402e-14 0)
(2.9 -1.20765e-14 0)
(2.9 -9.39513e-14 0)
(2.9 -4.24045e-15 0)
(2.9 -8.38488e-14 0)
(2.9 -6.18891e-14 0)
(2.9 -3.5776e-14 0)
(2.9 -9.77862e-14 0)
(2.9 -3.17554e-14 0)
(2.9 6.91118e-14 0)
(2.9 1.43057e-14 0)
(2.9 5.17291e-14 0)
(2.9 4.40043e-14 0)
(2.9 7.93886e-14 0)
(2.9 7.2557e-14 0)
(2.9 7.39363e-14 0)
(2.9 2.07843e-14 0)
(2.9 -4.77073e-14 0)
(2.9 -4.7894e-14 0)
(2.9 -5.59396e-14 0)
(2.9 -5.68325e-14 0)
(2.9 -2.86417e-14 0)
(2.9 -6.12275e-14 0)
(2.9 -5.73692e-14 0)
(2.9 -4.08729e-14 0)
(2.9 -5.96455e-14 0)
(2.9 -5.50139e-14 0)
(2.9 -2.0095e-14 0)
(2.9 -5.3191e-14 0)
(2.9 -3.09339e-14 0)
(2.9 -3.44299e-14 0)
(2.9 5.83883e-14 0)
(2.9 2.82961e-14 0)
(2.9 -8.51073e-14 0)
(2.9 -1.18313e-13 0)
(2.9 -6.32426e-14 0)
(2.9 -2.73847e-14 0)
(2.9 4.67157e-14 0)
(2.9 8.562e-14 0)
(2.9 -1.82293e-16 0)
(2.9 -1.12142e-14 0)
(2.9 1.62795e-14 0)
(2.9 -9.04482e-15 0)
(2.9 -5.2646e-14 0)
(2.9 -5.55841e-14 0)
(2.9 -3.08536e-14 0)
(2.9 -1.45284e-14 0)
(2.9 -5.55272e-15 0)
(2.9 -5.13557e-14 0)
(2.9 -3.26086e-14 0)
(2.9 -7.61987e-15 0)
(2.9 4.09385e-14 0)
(2.9 8.53113e-15 0)
(2.9 -3.67453e-15 0)
(2.9 -4.18448e-14 0)