/*--------------------------------*- C++ -*----------------------------------*\
| =========                 |                                                 |
| \\      /  F ield         | OpenFOAM: The Open Source CFD Toolbox           |
|  \\    /   O peration     | Version:  2412                                  |
|   \\  /    A nd           | Website:  www.openfoam.com                      |
|    \\/     M anipulation  |                                                 |
\*---------------------------------------------------------------------------*/
FoamFile
{
    version     2.0;
    format      ascii;
    arch        "LSB;label=32;scalar=64";
    class       volScalarField;
    location    "0.0554912";
    object      rho;
}
// * * * * * * * * * * * * * * * * * * * * * * * * * * * * * * * * * * * * * //

dimensions      [1 -3 0 0 0 0 0];

internalField   nonuniform List<scalar> 
100
(
1.08425
1.04431
0.981088
0.956152
0.964083
1.01041
1.05263
1.06157
1.04291
1.01188
0.9951
1.00244
1.02082
1.02641
1.01865
1.02074
1.03613
1.05622
1.04066
1.02675
1.05597
1.14685
0.885249
0.624018
0.608487
0.595592
0.544172
0.511066
0.507834
0.51131
0.515783
0.520909
0.524834
0.527343
0.524543
0.521328
0.523655
0.5271
0.531405
0.537217
0.545589
0.553265
0.558199
0.561973
0.565467
0.563964
0.548019
0.533403
0.53079
0.533849
0.537535
0.541813
0.546604
0.552269
0.557267
0.561182
0.562942
0.558178
0.550895
0.547877
0.548085
0.549367
0.5507
0.551272
0.551135
0.550791
0.550701
0.551043
0.55172
0.552708
0.55411
0.556192
0.55828
0.560103
0.56058
0.559467
0.556076
0.550806
0.545361
0.539636
0.532255
0.520404
0.506382
0.490946
0.476916
0.467943
0.462523
0.459614
0.457371
0.456301
0.455796
0.455721
0.456303
0.457297
0.458784
0.459783
0.460438
0.460349
0.460094
0.459599
)
;

boundaryField
{
    sides
    {
        type            calculated;
        value           nonuniform List<scalar> 2(0.459599 1.08425);
    }
    empty
    {
        type            empty;
    }
}


// ************************************************************************* //
