/*--------------------------------*- C++ -*----------------------------------*\
| =========                 |                                                 |
| \\      /  F ield         | OpenFOAM: The Open Source CFD Toolbox           |
|  \\    /   O peration     | Version:  2412                                  |
|   \\  /    A nd           | Website:  www.openfoam.com                      |
|    \\/     M anipulation  |                                                 |
\*---------------------------------------------------------------------------*/
FoamFile
{
    version     2.0;
    format      ascii;
    arch        "LSB;label=32;scalar=64";
    class       volScalarField;
    location    "0.0554912";
    object      TTR;
}
// * * * * * * * * * * * * * * * * * * * * * * * * * * * * * * * * * * * * * //

dimensions      [0 0 0 1 0 0 0];

internalField   nonuniform List<scalar> 
100
(
321.081
311.666
317.357
307.35
315.995
315.681
323.714
320.421
317.478
315.135
313.444
313.577
316.815
313.239
313.75
315.075
312.657
316.418
311.777
316.466
306.865
324.541
287.538
259.797
262.736
261.025
254.023
250.646
247.073
249.767
247.903
251.192
249.28
252.057
249.654
251.106
249.354
251.237
250.228
251.912
251.897
253.643
253.789
254.818
254.958
255.244
253.379
251.575
250.734
251.065
251.389
251.909
252.518
253.361
254.249
254.932
255.503
255.114
254.312
253.803
253.926
254.217
254.651
254.881
255.019
254.895
254.861
254.551
254.441
253.793
253.396
252.541
251.915
251.743
251.456
252.761
252.604
256.694
258.27
268.137
277.193
292.958
309.264
325.334
341.327
344.796
351.805
350.989
354.842
353.182
354.105
354.773
352.615
354.778
351.553
354.007
350.962
352.798
350.954
351.348
)
;

boundaryField
{
    sides
    {
        type            zeroGradient;
    }
    empty
    {
        type            empty;
    }
}


// ************************************************************************* //
