/*--------------------------------*- C++ -*----------------------------------*\
| =========                 |                                                 |
| \\      /  F ield         | OpenFOAM: The Open Source CFD Toolbox           |
|  \\    /   O peration     | Version:  2412                                  |
|   \\  /    A nd           | Website:  www.openfoam.com                      |
|    \\/     M anipulation  |                                                 |
\*---------------------------------------------------------------------------*/
FoamFile
{
    version     2.0;
    format      ascii;
    arch        "LSB;label=32;scalar=64";
    class       surfaceScalarField;
    location    "0.0554252";
    object      phiRhoY_Y_N2;
}
// * * * * * * * * * * * * * * * * * * * * * * * * * * * * * * * * * * * * * //

dimensions      [1 0 -1 0 0 0 0];

internalField   nonuniform List<scalar> 
99
(
91.8299
104.118
92.5438
46.2427
2.50033
-41.1286
-34.1024
-20.4236
-26.5727
-30.445
-14.1361
10.9701
19.1839
25.2495
4.98492
-34.9732
-49.1326
-27.7762
52.2587
64.4561
-27.4652
-296.94
-601.496
-634.415
-633.613
-603.92
-475.309
-394.157
-381.272
-381.551
-383.705
-387.816
-388.98
-387.99
-374.879
-361.698
-359.453
-358.787
-359.23
-362.517
-371.772
-379.429
-381.906
-382.597
-382.686
-374.156
-336.047
-302.147
-291.441
-290.904
-290.32
-291.017
-292.781
-296.571
-298.946
-299.88
-296.622
-280.936
-261.962
-250.921
-244.947
-240.842
-236.986
-231.651
-224.925
-217.776
-210.807
-204.332
-198.067
-191.837
-185.936
-180.552
-175.493
-170.212
-164.329
-157.192
-148.742
-138.146
-118.014
-88.6521
-59.3947
-34.2636
-14.4837
-3.06126
0
0
0
0
-0.453198
-0.406521
0
-0.0137297
-0.011968
-1.79396e-05
-1.5283e-05
0
0
0
0
)
;

boundaryField
{
    sides
    {
        type            calculated;
        value           uniform 0;
    }
    empty
    {
        type            empty;
    }
}


// ************************************************************************* //
