/*--------------------------------*- C++ -*----------------------------------*\
| =========                 |                                                 |
| \\      /  F ield         | OpenFOAM: The Open Source CFD Toolbox           |
|  \\    /   O peration     | Version:  2412                                  |
|   \\  /    A nd           | Website:  www.openfoam.com                      |
|    \\/     M anipulation  |                                                 |
\*---------------------------------------------------------------------------*/
FoamFile
{
    version     2.0;
    format      ascii;
    arch        "LSB;label=32;scalar=64";
    class       volScalarField;
    location    "0.0235648";
    object      TTR;
}
// * * * * * * * * * * * * * * * * * * * * * * * * * * * * * * * * * * * * * //

dimensions      [0 0 0 1 0 0 0];

internalField   nonuniform List<scalar> 
100
(
241.094
241.094
240.915
240.912
240.728
240.74
240.676
240.74
240.613
240.785
240.366
240.978
239.826
241.444
239.016
242.052
238.233
242.325
237.926
242.011
238.094
241.448
238.414
240.633
238.538
239.796
238.447
239.086
238.355
238.801
238.53
238.733
238.472
238.859
240.044
242.191
242.55
241.783
241.143
240.154
238.968
237.748
236.292
234.965
235.143
234.873
232.982
232.151
233.047
232.838
232.013
232.308
232.521
231.905
232.357
233.969
232.729
229.26
231.287
238.493
236.902
224.035
221.328
240.175
253.157
233.167
207.637
215.758
260.169
268.2
219.611
249.03
342.205
274.316
314.278
309.792
283.396
325.77
289.718
310.457
312.786
301.511
316.078
309.503
305.548
315.605
299.135
293.719
292.759
321.993
368.95
410.582
418.565
430.424
420.569
425.999
417.014
423.968
421.374
426.343
)
;

boundaryField
{
    sides
    {
        type            zeroGradient;
    }
    empty
    {
        type            empty;
    }
}


// ************************************************************************* //
