/*--------------------------------*- C++ -*----------------------------------*\
| =========                 |                                                 |
| \\      /  F ield         | OpenFOAM: The Open Source CFD Toolbox           |
|  \\    /   O peration     | Version:  2412                                  |
|   \\  /    A nd           | Website:  www.openfoam.com                      |
|    \\/     M anipulation  |                                                 |
\*---------------------------------------------------------------------------*/
FoamFile
{
    version     2.0;
    format      ascii;
    arch        "LSB;label=32;scalar=64";
    class       surfaceScalarField;
    location    "0.0556915";
    object      phiRhoY_Y_N2;
}
// * * * * * * * * * * * * * * * * * * * * * * * * * * * * * * * * * * * * * //

dimensions      [1 0 -1 0 0 0 0];

internalField   nonuniform List<scalar> 
99
(
129.355
168.389
133.022
33.1249
-61.308
-80.061
-41.7603
2.6105
12.6075
-4.09327
-16.9414
-15.1408
16.5747
24.3992
-4.14649
-48.5298
-52.9867
4.86204
47.3686
14.5663
-136.285
-215.674
-482.825
-623.374
-566.07
-429.433
-386.214
-382.772
-382.872
-387.516
-390.773
-391.585
-388.508
-371.89
-362.255
-361.415
-360.802
-361.75
-366.754
-377.218
-383.487
-385.055
-385.782
-385.241
-371.131
-328.383
-300.852
-293.288
-292.984
-293.177
-294.07
-296.651
-300.696
-302.77
-303.426
-299.083
-281.687
-262.949
-253.004
-247.783
-244.011
-240.267
-234.775
-227.924
-220.793
-213.875
-207.459
-201.188
-194.982
-189.136
-183.874
-179.044
-174.194
-168.553
-161.717
-153.922
-145.508
-134.245
-113.099
-83.8325
-55.3903
-31.1663
-12.4742
-2.39216
0
0
0
0
-0.443631
-0.397475
0
-0.0136067
-0.0120691
-1.82846e-05
-1.55046e-05
0
0
0
0
)
;

boundaryField
{
    sides
    {
        type            calculated;
        value           uniform 0;
    }
    empty
    {
        type            empty;
    }
}


// ************************************************************************* //
