/*--------------------------------*- C++ -*----------------------------------*\
| =========                 |                                                 |
| \\      /  F ield         | OpenFOAM: The Open Source CFD Toolbox           |
|  \\    /   O peration     | Version:  2412                                  |
|   \\  /    A nd           | Website:  www.openfoam.com                      |
|    \\/     M anipulation  |                                                 |
\*---------------------------------------------------------------------------*/
FoamFile
{
    version     2.0;
    format      ascii;
    arch        "LSB;label=32;scalar=64";
    class       surfaceScalarField;
    location    "0.0385736";
    object      phiRhoY_Y_N2;
}
// * * * * * * * * * * * * * * * * * * * * * * * * * * * * * * * * * * * * * //

dimensions      [1 0 -1 0 0 0 0];

internalField   nonuniform List<scalar> 
99
(
3.58811
7.1058
10.6046
14.1355
17.6426
21.238
24.8949
28.5526
32.3336
36.1186
39.8792
43.6324
47.3767
51.0221
54.6755
58.3304
61.9086
65.5448
69.1252
72.6511
76.1189
79.5456
82.9936
86.5131
90.0555
93.5567
97.2295
101.528
102.287
-43.0506
-437.36
-449.378
-432.726
-433.026
-441.34
-437.611
-401.108
-382.14
-381.571
-381.149
-397.929
-420.22
-427.779
-429.838
-426.103
-390.401
-347.133
-331.967
-331.014
-338.899
-354.824
-362.56
-365.639
-367.391
-361.92
-341.134
-330.759
-329.435
-333.072
-335.118
-329.644
-305.611
-288.321
-286.442
-290.048
-295.161
-296.703
-281.054
-256.567
-242.47
-239.953
-256.976
-273.942
-275.531
-264.062
-227.101
-189.912
-176.908
-175.799
-178.224
-185.878
-188.634
-187.833
-180.606
-173.738
-163.278
-148.199
-121.357
-76.562
-35.8971
-13.6128
-4.05659
-0.924248
-0.160518
-0.0184575
-0.000880846
9.48743e-05
1.06926e-05
2.00832e-07
)
;

boundaryField
{
    sides
    {
        type            calculated;
        value           uniform 0;
    }
    empty
    {
        type            empty;
    }
}


// ************************************************************************* //
