/*--------------------------------*- C++ -*----------------------------------*\
| =========                 |                                                 |
| \\      /  F ield         | OpenFOAM: The Open Source CFD Toolbox           |
|  \\    /   O peration     | Version:  2412                                  |
|   \\  /    A nd           | Website:  www.openfoam.com                      |
|    \\/     M anipulation  |                                                 |
\*---------------------------------------------------------------------------*/
FoamFile
{
    version     2.0;
    format      ascii;
    arch        "LSB;label=32;scalar=64";
    class       volScalarField;
    location    "0.0385736";
    object      TTR;
}
// * * * * * * * * * * * * * * * * * * * * * * * * * * * * * * * * * * * * * //

dimensions      [0 0 0 1 0 0 0];

internalField   nonuniform List<scalar> 
100
(
200
200
200
200
200
200
200
200
200
200.212
200
200.227
200
200
200
200
200
200
200
200
200
200
200
200
200
200
200
200
200
203.234
243.332
264.589
268.623
269.002
270.131
271.214
271.461
270.328
270.798
271.556
272.923
274.838
276.326
277.02
277.553
277.269
275.285
274.216
274.543
275.532
277.072
278.424
279.259
279.514
280.141
279.466
279.562
279.935
281.841
281.596
283.786
281.762
282.84
281.952
282.722
285.953
281.94
291.269
280.632
290.722
281.984
288.528
291.426
286.73
297.884
285.486
296.378
286.573
293.475
292.645
294.09
296.637
295.247
296.606
293.062
292.562
292.528
295.484
304.835
331.412
361.58
392.498
403.9
415.054
416.335
420.302
420.864
427.271
426.858
431.79
)
;

boundaryField
{
    sides
    {
        type            zeroGradient;
    }
    empty
    {
        type            empty;
    }
}


// ************************************************************************* //
