/*--------------------------------*- C++ -*----------------------------------*\
| =========                 |                                                 |
| \\      /  F ield         | OpenFOAM: The Open Source CFD Toolbox           |
|  \\    /   O peration     | Version:  2412                                  |
|   \\  /    A nd           | Website:  www.openfoam.com                      |
|    \\/     M anipulation  |                                                 |
\*---------------------------------------------------------------------------*/
FoamFile
{
    version     2.0;
    format      ascii;
    arch        "LSB;label=32;scalar=64";
    class       surfaceScalarField;
    location    "0.0285992";
    object      phiRhoY_Y_N2;
}
// * * * * * * * * * * * * * * * * * * * * * * * * * * * * * * * * * * * * * //

dimensions      [1 0 -1 0 0 0 0];

internalField   nonuniform List<scalar> 
99
(
7.79282
15.5788
23.3561
31.1064
38.8299
46.537
54.2522
61.9752
69.7073
77.4568
85.19
92.9323
100.659
108.375
116.093
123.784
131.482
139.158
146.834
154.497
162.141
169.771
177.376
184.963
192.509
200.036
207.538
215.024
222.475
229.89
237.272
244.643
252.006
259.356
266.68
273.936
281.063
288.089
295.107
302.052
308.794
315.682
323.097
330.495
337.528
344.611
351.875
358.255
362.977
367.514
372.977
376.378
377.939
381.49
398.115
418.243
421.095
422.688
425.232
413.817
125.649
-37.8508
-8.00807
36.8613
32.4349
5.1178
-26.1365
-22.7412
-6.785
14.1675
28.2573
24.0897
6.73242
-11.777
-16.1961
-9.7719
8.42283
25.6205
25.8393
12.0163
-7.82151
-20.9197
-23.4308
-23.954
-7.60253
6.3869
21.9387
26.7119
10.0891
3.42114
0.11158
-0.374793
-0.0883309
-0.0166253
-0.000489165
-3.00522e-05
-3.20533e-06
-1.68374e-07
0
)
;

boundaryField
{
    sides
    {
        type            calculated;
        value           uniform 0;
    }
    empty
    {
        type            empty;
    }
}


// ************************************************************************* //
