x,p,U_0,U_1,U_2
-5,14759.6,0,0,0
-4.94975,14759.6,1.52373,0,0
-4.8995,14756.7,3.09879,0,0
-4.84925,14753.8,4.67443,0,0
-4.79899,14748.7,6.28715,0,0
-4.74874,14743.6,7.90106,0,0
-4.69849,14736.9,9.56114,0,0
-4.64824,14730.3,11.2224,0,0
-4.59799,14723.4,12.9167,0,0
-4.54774,14716.5,14.6116,0,0
-4.49749,14710.4,16.3189,0,0
-4.44724,14704.4,18.026,0,0
-4.39698,14699.4,19.7287,0,0
-4.34673,14694.4,21.4301,0,0
-4.29648,14690.6,23.1131,0,0
-4.24623,14686.9,24.7941,0,0
-4.19598,14684.7,26.4494,0,0
-4.14573,14682.5,28.1024,0,0
-4.09548,14681.5,29.7301,0,0
-4.04523,14680.5,31.3552,0,0
-3.99497,14679.7,32.9549,0,0
-3.94472,14678.9,34.5519,0,0
-3.89447,14677.4,36.1269,0,0
-3.84422,14675.9,37.7004,0,0
-3.79397,14673.9,39.2626,0,0
-3.74372,14671.9,40.8267,0,0
-3.69347,14670.3,42.4045,0,0
-3.64322,14668.8,43.9863,0,0
-3.59296,14668.2,45.5945,0,0
-3.54271,14667.7,47.2058,0,0
-3.49246,14667.8,48.8359,0,0
-3.44221,14668.1,50.4692,0,0
-3.39196,14669,52.1203,0,0
-3.34171,14669.9,53.7737,0,0
-3.29146,14671,55.4382,0,0
-3.24121,14672.1,57.1023,0,0
-3.19095,14673.2,58.7647,0,0
-3.1407,14674.3,60.4263,0,0
-3.09045,14675.2,62.085,0,0
-3.0402,14674.5,63.7628,0,0
-2.98995,14668,65.52,0,0
-2.9397,14660.5,67.3029,0,0
-2.88945,14649,69.185,0,0
-2.8392,14689.8,70.0387,0,0
-2.78894,14921.5,67.1374,0,0
-2.73869,16659.8,47.1478,0,0
-2.68844,23588,-31.7015,0,0
-2.63819,31061,-104.437,0,0
-2.58794,40307.7,-157.27,0,0
-2.53769,47564.8,-197.882,0,0
-2.48744,48690.4,-200.832,0,0
-2.43719,49387.7,-201.747,0,0
-2.38693,48833.4,-196.715,0,0
-2.33668,48321.1,-191.971,0,0
-2.28643,47925.5,-188.029,0,0
-2.23618,47573.8,-184.227,0,0
-2.18593,47338.3,-180.797,0,0
-2.13568,47123.8,-177.463,0,0
-2.08543,46962.1,-174.37,0,0
-2.03518,46910.1,-171.768,0,0
-1.98492,47120.4,-170.341,0,0
-1.93467,47369.7,-169.264,0,0
-1.88442,47707.7,-168.982,0,0
-1.83417,48240.9,-169.61,0,0
-1.78392,49198.3,-172.215,0,0
-1.73367,50183.1,-174.896,0,0
-1.68342,51224.6,-177.736,0,0
-1.63317,52070.6,-179.623,0,0
-1.58291,52528.2,-179.62,0,0
-1.53266,52934.5,-179.343,0,0
-1.48241,53243.2,-178.547,0,0
-1.43216,53511.8,-177.486,0,0
-1.38191,53707.7,-175.943,0,0
-1.33166,53601.8,-173.153,0,0
-1.28141,52970.8,-168.192,0,0
-1.23116,52210.4,-162.465,0,0
-1.1809,51234.1,-155.46,0,0
-1.13065,50565.3,-149.998,0,0
-1.0804,50387.7,-147.002,0,0
-1.03015,50397.7,-144.81,0,0
-0.979899,50695,-143.847,0,0
-0.929648,51053.1,-143.366,0,0
-0.879397,51500.3,-143.591,0,0
-0.829146,52155.9,-144.63,0,0
-0.778894,53105.1,-146.816,0,0
-0.728643,53999.6,-148.726,0,0
-0.678392,54820.2,-150.263,0,0
-0.628141,55479.9,-151.059,0,0
-0.577889,55930.7,-150.893,0,0
-0.527638,56341.6,-150.485,0,0
-0.477387,56702.9,-149.774,0,0
-0.427136,57007.9,-148.747,0,0
-0.376884,57245.2,-147.338,0,0
-0.326633,57292.1,-145.229,0,0
-0.276382,57119.7,-142.311,0,0
-0.226131,56991.3,-139.528,0,0
-0.175879,56911.6,-136.893,0,0
-0.125628,57028.8,-135.059,0,0
-0.0753769,57355.3,-134.074,0,0
-0.0251256,57762.4,-133.612,0,0
0.0251256,58251.8,-133.684,0,0
0.0753769,58789.3,-133.797,0,0
0.125628,59374.2,-133.95,0,0
0.175879,59856,-133.656,0,0
0.226131,60240.9,-132.941,0,0
0.276382,60437.1,-131.366,0,0
0.326633,60462.4,-129.012,0,0
0.376884,60290.5,-126.017,0,0
0.427136,59947,-122.465,0,0
0.477387,59816.2,-119.687,0,0
0.527638,59863.1,-117.555,0,0
0.577889,60139.1,-116.338,0,0
0.628141,60598.8,-115.854,0,0
0.678392,61162.5,-115.989,0,0
0.728643,61806.4,-116.6,0,0
0.778894,62488.4,-117.026,0,0
0.829146,63198.7,-117.314,0,0
0.879397,63681.2,-116.986,0,0
0.929648,64002.2,-116.22,0,0
0.979899,64165.4,-114.306,0,0
1.03015,64221.2,-111.612,0,0
1.0804,63940.2,-108.416,0,0
1.13065,63439.2,-104.892,0,0
1.1809,63377.7,-102.221,0,0
1.23116,63591.3,-100.082,0,0
1.28141,63866.3,-99.0332,0,0
1.33166,64178.2,-98.6382,0,0
1.38191,64997.9,-99.6885,0,0
1.43216,66109.4,-101.569,0,0
1.48241,67254.2,-103.348,0,0
1.53266,68417.3,-105.072,0,0
1.58291,69061,-105.98,0,0
1.63317,69431,-106.459,0,0
1.68342,70035.9,-104.889,0,0
1.73367,70759.1,-102.287,0,0
1.78392,70115.2,-99.0327,0,0
1.83417,68813.1,-95.4643,0,0
1.88442,68528.8,-90.6884,0,0
1.93467,68712.4,-85.3572,0,0
1.98492,67997,-81.8109,0,0
2.03518,66887,-79.0479,0,0
2.08543,67429,-77.9299,0,0
2.13568,68662.3,-77.5002,0,0
2.18593,69167,-77.0993,0,0
2.23618,69381.3,-76.7099,0,0
2.28643,70147.4,-77.7894,0,0
2.33668,71122.6,-79.426,0,0
2.38693,72261.6,-79.7206,0,0
2.43719,73459.6,-79.5312,0,0
2.48744,73388,-79.5745,0,0
2.53769,72881.9,-79.6973,0,0
2.58794,73980,-78.6721,0,0
2.63819,75598.7,-77.2744,0,0
2.68844,75160.5,-75.5246,0,0
2.73869,74090.4,-73.6666,0,0
2.78894,74837.5,-72.4471,0,0
2.8392,76112.2,-71.413,0,0
2.88945,76132.3,-69.858,0,0
2.9397,75808.9,-68.1602,0,0
2.98995,76284.7,-67.2005,0,0
3.0402,76966.6,-66.4311,0,0
3.09045,77068.3,-64.39,0,0
3.1407,77029.4,-62.0409,0,0
3.19095,77185.8,-60.1264,0,0
3.24121,77386.5,-58.3105,0,0
3.29146,77907.2,-56.9437,0,0
3.34171,78495.7,-55.6722,0,0
3.39196,78767.4,-55.1023,0,0
3.44221,78976.6,-54.671,0,0
3.49246,79709.1,-54.1267,0,0
3.54271,80537.5,-53.5616,0,0
3.59296,80942.6,-53.1655,0,0
3.64322,81275.9,-52.7982,0,0
3.69347,81526,-51.471,0,0
3.74372,81763.2,-49.9941,0,0
3.79397,81116.6,-47.8412,0,0
3.84422,80343.8,-45.5917,0,0
3.89447,80939.3,-45.0812,0,0
3.94472,81712.7,-44.7967,0,0
3.99497,82543.3,-45.8147,0,0
4.04523,83380.6,-46.9855,0,0
4.09548,85104.3,-48.4887,0,0
4.14573,86921.1,-50.0268,0,0
4.19598,88255.9,-51.5152,0,0
4.24623,89546,-52.999,0,0
4.29648,90911.3,-53.3392,0,0
4.34673,92282.8,-53.5867,0,0
4.39698,92210.6,-52.1385,0,0
4.44724,92038.1,-50.5725,0,0
4.49749,91655,-46.9115,0,0
4.54774,91259.6,-43.1286,0,0
4.59799,89122.2,-36.7661,0,0
4.64824,86902.8,-30.2821,0,0
4.69849,85568.4,-24.3696,0,0
4.74874,84266.2,-18.4779,0,0
4.79899,82892.8,-13.8199,0,0
4.84925,81517.6,-9.19355,0,0
4.8995,80561.1,-8.29408,0,0
4.94975,79610.9,-7.45136,0,0
5,79606.1,0,0,0
