/*--------------------------------*- C++ -*----------------------------------*\
| =========                 |                                                 |
| \\      /  F ield         | OpenFOAM: The Open Source CFD Toolbox           |
|  \\    /   O peration     | Version:  2412                                  |
|   \\  /    A nd           | Website:  www.openfoam.com                      |
|    \\/     M anipulation  |                                                 |
\*---------------------------------------------------------------------------*/
FoamFile
{
    version     2.0;
    format      ascii;
    arch        "LSB;label=32;scalar=64";
    class       volScalarField;
    location    "0.00975026";
    object      rhoY_Y_N2;
}
// * * * * * * * * * * * * * * * * * * * * * * * * * * * * * * * * * * * * * //

dimensions      [1 -3 0 0 0 0 0];

internalField   nonuniform List<scalar> 
100
(
1.12308
1.12308
1.12308
1.12308
1.12308
1.12308
1.12308
1.12308
1.12308
1.12308
1.12308
1.12308
1.12308
1.12308
1.12308
1.12308
1.12291
1.11866
1.09582
1.05463
1.01399
0.980917
0.953284
0.928351
0.904663
0.88166
0.859151
0.837117
0.815452
0.794331
0.773419
0.753329
0.733394
0.714022
0.695958
0.676029
0.660172
0.642154
0.624197
0.609606
0.592993
0.57701
0.559687
0.545057
0.532662
0.519979
0.501798
0.483902
0.47306
0.735643
0.530995
0.509295
0.480819
0.479173
0.511868
0.525288
0.494631
0.45573
0.460593
0.507109
0.524156
0.493785
0.452496
0.453545
0.492336
0.515299
0.501334
0.457086
0.441067
0.455409
0.504956
0.542195
0.517278
0.421044
0.29326
0.184084
0.105643
0.0564958
0.0288304
0.0137594
0.00612403
0.0025426
0.000988589
0.000366829
0.000130151
4.40324e-05
1.4189e-05
4.28313e-06
1.21994e-06
3.27844e-07
8.4618e-08
2.13036e-08
5.14813e-09
1.18622e-09
2.65444e-10
5.41385e-11
7.84173e-12
3.12186e-13
1.13944e-16
7.24369e-25
)
;

boundaryField
{
    sides
    {
        type            calculated;
        value           nonuniform List<scalar> 2(0 1.12308);
    }
    empty
    {
        type            empty;
    }
}


// ************************************************************************* //
