/*--------------------------------*- C++ -*----------------------------------*\
| =========                 |                                                 |
| \\      /  F ield         | OpenFOAM: The Open Source CFD Toolbox           |
|  \\    /   O peration     | Version:  2412                                  |
|   \\  /    A nd           | Website:  www.openfoam.com                      |
|    \\/     M anipulation  |                                                 |
\*---------------------------------------------------------------------------*/
FoamFile
{
    version     2.0;
    format      ascii;
    arch        "LSB;label=32;scalar=64";
    class       surfaceScalarField;
    location    "0.00693439";
    object      phiRhoY_Y_O2;
}
// * * * * * * * * * * * * * * * * * * * * * * * * * * * * * * * * * * * * * //

dimensions      [1 0 -1 0 0 0 0];

internalField   nonuniform List<scalar> 
99
(
0
0
0
0
0
0
0
0
0
0
0
0
0
0
0
0
0
0
0
0
0
0
0
0
0
0
0
0
0
0
0
0
0
0
0
0
0
0
0
0
0
0
0
0
0
0
0
0
0
0
0
0
0
0
0
0
0
0
0
0
0
0
0
0
21.2455
98.5411
205.453
291.901
351.224
394.218
417.772
419.812
412.562
414.057
414.883
418.898
435.017
437.872
434.821
431.504
442.569
456.342
375.105
33.0117
0.029927
1.91557e-06
1.54515e-10
-1.42109e-13
-1.13687e-13
-1.13687e-13
-1.42109e-13
-1.84741e-13
-2.55795e-13
-2.70006e-13
-2.13163e-13
-7.10543e-14
-4.26326e-14
-1.42109e-14
0
)
;

boundaryField
{
    sides
    {
        type            calculated;
        value           uniform 0;
    }
    empty
    {
        type            empty;
    }
}


// ************************************************************************* //
