/*--------------------------------*- C++ -*----------------------------------*\
| =========                 |                                                 |
| \\      /  F ield         | OpenFOAM: The Open Source CFD Toolbox           |
|  \\    /   O peration     | Version:  2412                                  |
|   \\  /    A nd           | Website:  www.openfoam.com                      |
|    \\/     M anipulation  |                                                 |
\*---------------------------------------------------------------------------*/
FoamFile
{
    version     2.0;
    format      ascii;
    arch        "LSB;label=32;scalar=64";
    class       surfaceScalarField;
    location    "0.00693439";
    object      phiRhoY_Y_N2;
}
// * * * * * * * * * * * * * * * * * * * * * * * * * * * * * * * * * * * * * //

dimensions      [1 0 -1 0 0 0 0];

internalField   nonuniform List<scalar> 
99
(
-1.13687e-13
-7.95808e-13
-4.54747e-13
-4.54747e-13
-3.41061e-13
-4.54747e-13
-5.68434e-13
-4.54747e-13
-1.47793e-12
-1.02318e-12
-1.02318e-12
-7.95808e-13
-4.54747e-13
1.13687e-13
5.68434e-13
4.54747e-13
9.09495e-13
5.68434e-13
4.54747e-13
4.54747e-13
7.95808e-13
1.74055e-10
9.10486e-08
3.82523e-05
0.010765
0.986453
16.1772
66.1141
129.099
182.893
226.064
262.466
294.715
323.934
350.707
375.078
397.191
417.378
434.657
450.865
464.972
475.056
485.748
498.341
504.537
505.109
507.424
524.544
535.192
523.44
501.946
500.941
536.29
554.978
532.679
497.919
496.816
536.138
549.956
527.313
494.637
493.665
523.111
571.178
551.668
453.304
306.93
180.86
97.1998
48.7451
22.2335
9.09593
3.42578
1.24104
0.421614
0.135027
0.0413703
0.0113191
0.00279764
0.000635105
0.000136532
2.60568e-05
3.06586e-06
1.92905e-08
1.68172e-14
2.06721e-26
2.42135e-44
-5.93473e-67
0
0
0
0
0
0
0
0
0
0
0
)
;

boundaryField
{
    sides
    {
        type            calculated;
        value           uniform 0;
    }
    empty
    {
        type            empty;
    }
}


// ************************************************************************* //
