/*--------------------------------*- C++ -*----------------------------------*\
| =========                 |                                                 |
| \\      /  F ield         | OpenFOAM: The Open Source CFD Toolbox           |
|  \\    /   O peration     | Version:  2412                                  |
|   \\  /    A nd           | Website:  www.openfoam.com                      |
|    \\/     M anipulation  |                                                 |
\*---------------------------------------------------------------------------*/
FoamFile
{
    version     2.0;
    format      ascii;
    arch        "LSB;label=32;scalar=64";
    class       volScalarField;
    location    "0.00693439";
    object      rho;
}
// * * * * * * * * * * * * * * * * * * * * * * * * * * * * * * * * * * * * * //

dimensions      [1 -3 0 0 0 0 0];

internalField   nonuniform List<scalar> 
100
(
1.12308
1.12308
1.12308
1.12308
1.12308
1.12308
1.12308
1.12308
1.12308
1.12308
1.12308
1.12308
1.12308
1.12308
1.12308
1.12308
1.12308
1.12308
1.12308
1.12308
1.12308
1.12308
1.12308
1.12308
1.12308
1.1228
1.1169
1.08823
1.03935
0.991114
0.95034
0.914892
0.882184
0.851102
0.820788
0.791808
0.762882
0.735661
0.709369
0.681458
0.660599
0.635222
0.609414
0.591706
0.573536
0.548096
0.519157
0.502659
0.502032
0.488994
0.453839
0.432637
0.446671
0.488441
0.491848
0.451549
0.430587
0.448237
0.486604
0.487103
0.45061
0.430743
0.441213
0.485055
0.511667
0.506366
0.47764
0.441343
0.410649
0.394827
0.389138
0.385217
0.378418
0.374932
0.374702
0.374804
0.378602
0.384099
0.384414
0.382611
0.383533
0.392981
0.394063
0.287366
0.166714
0.160362
0.160357
0.160357
0.160357
0.160357
0.160357
0.160357
0.160357
0.160357
0.160357
0.160357
0.160357
0.160357
0.160357
0.160357
)
;

boundaryField
{
    sides
    {
        type            calculated;
        value           nonuniform List<scalar> 2(0.160357 1.12308);
    }
    empty
    {
        type            empty;
    }
}


// ************************************************************************* //
