/*--------------------------------*- C++ -*----------------------------------*\
| =========                 |                                                 |
| \\      /  F ield         | OpenFOAM: The Open Source CFD Toolbox           |
|  \\    /   O peration     | Version:  2412                                  |
|   \\  /    A nd           | Website:  www.openfoam.com                      |
|    \\/     M anipulation  |                                                 |
\*---------------------------------------------------------------------------*/
FoamFile
{
    version     2.0;
    format      ascii;
    arch        "LSB;label=32;scalar=64";
    class       volScalarField;
    location    "0.0509898";
    object      rhoY_Y_N2;
}
// * * * * * * * * * * * * * * * * * * * * * * * * * * * * * * * * * * * * * //

dimensions      [1 -3 0 0 0 0 0];

internalField   nonuniform List<scalar> 
100
(
1.00209
1.03955
1.03445
1.0255
1.01105
0.995063
0.98597
0.97848
0.982146
0.964609
1.01013
0.962975
0.69045
0.548522
0.548455
0.554142
0.551669
0.523547
0.503542
0.503855
0.507235
0.511269
0.524705
0.553318
0.565251
0.569044
0.571424
0.568105
0.567133
0.569892
0.573224
0.57302
0.570946
0.573482
0.577796
0.585046
0.598125
0.606267
0.610844
0.610613
0.601677
0.599812
0.603776
0.622498
0.671508
0.691112
0.696821
0.701208
0.695567
0.916069
0.672843
0.655192
0.646773
0.644111
0.643128
0.640827
0.637708
0.637831
0.640699
0.64407
0.648523
0.653923
0.659463
0.664202
0.666476
0.661123
0.650383
0.642527
0.639235
0.638721
0.640703
0.645658
0.651238
0.657694
0.663438
0.664406
0.663666
0.660501
0.658045
0.653552
0.632047
0.557759
0.434268
0.291783
0.146488
0.0319931
-0.0198602
-0.0321175
-0.0293294
0.0075258
-0.0153391
-0.00067177
0.000325045
-0.000450417
5.669e-07
-3.25627e-06
-1.28953e-07
-4.33778e-08
-4.00737e-09
-2.01132e-10
)
;

boundaryField
{
    sides
    {
        type            calculated;
        value           nonuniform List<scalar> 2(0 1.12308);
    }
    empty
    {
        type            empty;
    }
}


// ************************************************************************* //
