/*--------------------------------*- C++ -*----------------------------------*\
| =========                 |                                                 |
| \\      /  F ield         | OpenFOAM: The Open Source CFD Toolbox           |
|  \\    /   O peration     | Version:  2412                                  |
|   \\  /    A nd           | Website:  www.openfoam.com                      |
|    \\/     M anipulation  |                                                 |
\*---------------------------------------------------------------------------*/
FoamFile
{
    version     2.0;
    format      ascii;
    arch        "LSB;label=32;scalar=64";
    class       volVectorField;
    location    "0.0509898";
    object      U;
}
// * * * * * * * * * * * * * * * * * * * * * * * * * * * * * * * * * * * * * //

dimensions      [0 1 -1 0 0 0 0];

internalField   nonuniform List<vector> 
100
(
(-0.210501 0 0)
(-12.8573 0 0)
(-4.33524 0 0)
(11.5045 0 0)
(18.994 0 0)
(12.9997 0 0)
(-11.51 0 0)
(-31.0038 0 0)
(-34.0927 0 0)
(-7.56471 0 0)
(19.2181 0 0)
(3.9102 0 0)
(-142.073 0 0)
(-246.618 0 0)
(-251.062 0 0)
(-248.242 0 0)
(-243.667 0 0)
(-224.639 0 0)
(-209.303 0 0)
(-205.183 0 0)
(-203.898 0 0)
(-203.066 0 0)
(-207.476 0 0)
(-219.936 0 0)
(-223.398 0 0)
(-222.309 0 0)
(-219.569 0 0)
(-214.655 0 0)
(-210.097 0 0)
(-207.872 0 0)
(-205.647 0 0)
(-201.815 0 0)
(-196.789 0 0)
(-194.114 0 0)
(-192.67 0 0)
(-192.793 0 0)
(-195.585 0 0)
(-196.205 0 0)
(-194.814 0 0)
(-191.199 0 0)
(-183.688 0 0)
(-179.108 0 0)
(-177.642 0 0)
(-184.046 0 0)
(-203.327 0 0)
(-209.212 0 0)
(-208.015 0 0)
(-205.866 0 0)
(-199.686 0 0)
(-177.954 0 0)
(-155.005 0 0)
(-145.305 0 0)
(-141.566 0 0)
(-139.408 0 0)
(-137.225 0 0)
(-133.894 0 0)
(-130.019 0 0)
(-127.196 0 0)
(-126.072 0 0)
(-125.296 0 0)
(-124.856 0 0)
(-124.892 0 0)
(-124.708 0 0)
(-123.936 0 0)
(-121.672 0 0)
(-116.683 0 0)
(-108.306 0 0)
(-101.459 0 0)
(-96.6977 0 0)
(-92.9648 0 0)
(-90.8882 0 0)
(-89.8508 0 0)
(-89.2568 0 0)
(-88.1987 0 0)
(-86.945 0 0)
(-83.1162 0 0)
(-78.6374 0 0)
(-73.6137 0 0)
(-69.3944 0 0)
(-67.0307 0 0)
(-62.9225 0 0)
(-60.0802 0 0)
(-56.4821 0 0)
(-53.8308 0 0)
(-50.5294 0 0)
(-47.0586 0 0)
(-44.0766 0 0)
(-39.7127 0 0)
(-36.9375 0 0)
(-33.4449 0 0)
(-30.8526 0 0)
(-27.8781 0 0)
(-24.9479 0 0)
(-21.2742 0 0)
(-17.5424 0 0)
(-13.9533 0 0)
(-10.3817 0 0)
(-7.52931 0 0)
(-4.14508 0 0)
(-1.58971 0 0)
)
;

boundaryField
{
    sides
    {
        type            fixedValue;
        value           uniform (0 0 0);
    }
    empty
    {
        type            empty;
    }
}


// ************************************************************************* //
