/*--------------------------------*- C++ -*----------------------------------*\
| =========                 |                                                 |
| \\      /  F ield         | OpenFOAM: The Open Source CFD Toolbox           |
|  \\    /   O peration     | Version:  2412                                  |
|   \\  /    A nd           | Website:  www.openfoam.com                      |
|    \\/     M anipulation  |                                                 |
\*---------------------------------------------------------------------------*/
FoamFile
{
    version     2.0;
    format      ascii;
    arch        "LSB;label=32;scalar=64";
    class       volScalarField;
    location    "0.0243363";
    object      p;
}
// * * * * * * * * * * * * * * * * * * * * * * * * * * * * * * * * * * * * * //

dimensions      [1 -1 -2 0 0 0 0];

internalField   nonuniform List<scalar> 
100
(
35099.7
35102.6
35086
35091
35068.2
35068.1
35047.3
35052
35006.1
35032.3
34917.5
35029.9
34780.9
35057.5
34611.3
35082.1
34462.5
35028.9
34357.1
34892.2
34303.2
34716.3
34273.8
34551.6
34240.6
34374
34133.1
34123.6
33905.3
33814.4
33633.5
33548
33459.2
33485.7
33511.3
33462.7
33297.7
33253.3
33984.1
35773
36181.6
35655
35167.9
34624.3
33972.4
33112.8
32372.5
31904.7
31520.3
31456.3
31545.2
31732.9
31820.2
31875.4
31800.3
31692
31778.4
31942.6
31811.5
31495.9
31613.8
32178.6
32233.2
31166
31043.5
32017.9
32996.2
32379.8
31004.1
57654.7
91391.9
83784
101724
86255.8
96836.7
95599.8
91079.6
102811
95401.7
101605
101949
99146.5
100342
95693.9
93818.4
95053.1
94264.8
96300
98339.8
99246.7
99925.7
98553.9
95212
97062
95266
98647
97986.2
98603.2
97044.8
96914.7
)
;

boundaryField
{
    sides
    {
        type            zeroGradient;
    }
    empty
    {
        type            empty;
    }
}


// ************************************************************************* //
