/*--------------------------------*- C++ -*----------------------------------*\
| =========                 |                                                 |
| \\      /  F ield         | OpenFOAM: The Open Source CFD Toolbox           |
|  \\    /   O peration     | Version:  2412                                  |
|   \\  /    A nd           | Website:  www.openfoam.com                      |
|    \\/     M anipulation  |                                                 |
\*---------------------------------------------------------------------------*/
FoamFile
{
    version     2.0;
    format      ascii;
    arch        "LSB;label=32;scalar=64";
    class       volScalarField;
    location    "0.020933";
    object      p;
}
// * * * * * * * * * * * * * * * * * * * * * * * * * * * * * * * * * * * * * //

dimensions      [1 -1 -2 0 0 0 0];

internalField   nonuniform List<scalar> 
100
(
46834.4
46838
46804.6
46806.9
46759.2
46738.6
46689.9
46650.3
46602
46560.3
46487.3
46421.5
46250.2
46188.2
45920.3
46054.3
45697.6
46140.1
45741.9
46722.1
46405.6
47700.9
47818
49182.1
48178.4
47711.6
46239.7
45433.7
44188.7
43496.1
42540.3
42050.6
41457.7
40841.8
40081.4
39391.8
38686.5
38047
37399.2
36778.8
36147.4
35550.2
34927.2
34361.2
33853
33300.6
32721.6
32319
31962.2
31698.5
31643.1
31698.2
31747.6
31804.3
31906.2
31833.1
31566.2
31574.6
32126.8
32284.6
31493.8
31015.3
31666.5
32668.5
32648.8
30801.3
30668.3
32084
33337.6
32904
31169.9
30448.9
32162
33526.2
33314.6
31613.9
55197.2
96872.4
85858.5
93876.6
94107.3
88769.4
97632.6
92657.5
88428.1
93003.3
90900.2
92749.1
96231.7
99881.9
103649
103830
98678
98506.9
95025.3
97711.1
96482.2
98422
95914.1
94291.6
)
;

boundaryField
{
    sides
    {
        type            zeroGradient;
    }
    empty
    {
        type            empty;
    }
}


// ************************************************************************* //
