/*--------------------------------*- C++ -*----------------------------------*\
| =========                 |                                                 |
| \\      /  F ield         | OpenFOAM: The Open Source CFD Toolbox           |
|  \\    /   O peration     | Version:  2412                                  |
|   \\  /    A nd           | Website:  www.openfoam.com                      |
|    \\/     M anipulation  |                                                 |
\*---------------------------------------------------------------------------*/
FoamFile
{
    version     2.0;
    format      ascii;
    arch        "LSB;label=32;scalar=64";
    class       volScalarField;
    location    "0.020933";
    object      TTR;
}
// * * * * * * * * * * * * * * * * * * * * * * * * * * * * * * * * * * * * * //

dimensions      [0 0 0 1 0 0 0];

internalField   nonuniform List<scalar> 
100
(
253.622
253.627
253.35
253.35
253.178
253.229
253.172
253.147
253.074
253.04
252.907
252.913
252.528
252.787
251.876
252.996
251.133
253.684
250.652
254.851
251.205
255.977
253.236
257.314
253.664
255.265
251.971
252.234
249.718
249.597
247.861
247.571
246.447
245.853
244.759
243.89
242.762
241.92
241.03
240.241
239.265
238.283
237.013
236.556
236.449
234.792
233.198
233.535
233.154
232.037
232.136
232.364
232.194
232.93
233.852
231.267
228.375
233.04
240.977
236.145
220.689
220.292
243.234
255.92
232.823
204.959
214.983
257.929
270.063
229.205
200
209.928
263.802
279.888
236.112
200
246.859
337.797
275.959
311.878
314.727
286.863
318.833
303.2
291.804
316.639
300.71
286.73
290.069
324.252
378.148
415.8
418.253
430.152
419.32
429.448
419.933
425.783
419.882
417.556
)
;

boundaryField
{
    sides
    {
        type            zeroGradient;
    }
    empty
    {
        type            empty;
    }
}


// ************************************************************************* //
