/*--------------------------------*- C++ -*----------------------------------*\
| =========                 |                                                 |
| \\      /  F ield         | OpenFOAM: The Open Source CFD Toolbox           |
|  \\    /   O peration     | Version:  2412                                  |
|   \\  /    A nd           | Website:  www.openfoam.com                      |
|    \\/     M anipulation  |                                                 |
\*---------------------------------------------------------------------------*/
FoamFile
{
    version     2.0;
    format      ascii;
    arch        "LSB;label=32;scalar=64";
    class       volVectorField;
    location    "0.020933";
    object      U;
}
// * * * * * * * * * * * * * * * * * * * * * * * * * * * * * * * * * * * * * //

dimensions      [0 1 -1 0 0 0 0];

internalField   nonuniform List<vector> 
100
(
(3.57 0 0)
(10.8137 0 0)
(18.0087 0 0)
(25.1599 0 0)
(32.3713 0 0)
(39.5383 0 0)
(46.7379 0 0)
(53.948 0 0)
(61.1936 0 0)
(68.4501 0 0)
(75.628 0 0)
(82.7377 0 0)
(89.602 0 0)
(96.5364 0 0)
(103.215 0 0)
(110.486 0 0)
(117.552 0 0)
(125.816 0 0)
(133.835 0 0)
(143.52 0 0)
(153.478 0 0)
(164.126 0 0)
(176.427 0 0)
(187.23 0 0)
(193.915 0 0)
(196.926 0 0)
(199.708 0 0)
(201.606 0 0)
(204.54 0 0)
(207.467 0 0)
(211.195 0 0)
(215.803 0 0)
(221.037 0 0)
(225.231 0 0)
(229.168 0 0)
(232.993 0 0)
(236.984 0 0)
(241.044 0 0)
(245.163 0 0)
(249.233 0 0)
(253.263 0 0)
(257.288 0 0)
(261.151 0 0)
(264.932 0 0)
(269.066 0 0)
(272.806 0 0)
(275.869 0 0)
(279.45 0 0)
(282.329 0 0)
(283.74 0 0)
(284.268 0 0)
(284.034 0 0)
(283.152 0 0)
(282.935 0 0)
(283.771 0 0)
(283.738 0 0)
(281.738 0 0)
(281.138 0 0)
(285.428 0 0)
(287.227 0 0)
(281.694 0 0)
(277.853 0 0)
(281.07 0 0)
(289.849 0 0)
(290.869 0 0)
(276.485 0 0)
(273.054 0 0)
(280.969 0 0)
(291.917 0 0)
(290.361 0 0)
(273.291 0 0)
(272.075 0 0)
(280.1 0 0)
(293.315 0 0)
(292.877 0 0)
(265.868 0 0)
(133.206 0 0)
(16.5789 0 0)
(13.1781 0 0)
(2.19838 0 0)
(18.8487 0 0)
(15.2226 0 0)
(14.5343 0 0)
(21.724 0 0)
(10.8644 0 0)
(9.90433 0 0)
(13.5207 0 0)
(8.95994 0 0)
(2.43327 0 0)
(-5.03333 0 0)
(-7.51309 0 0)
(-5.40167 0 0)
(-10.0322 0 0)
(-13.3147 0 0)
(-10.2515 0 0)
(-2.87487 0 0)
(9.03712 0 0)
(15.5766 0 0)
(18.7002 0 0)
(6.45409 0 0)
)
;

boundaryField
{
    sides
    {
        type            fixedValue;
        value           uniform (0 0 0);
    }
    empty
    {
        type            empty;
    }
}


// ************************************************************************* //
