/*--------------------------------*- C++ -*----------------------------------*\
| =========                 |                                                 |
| \\      /  F ield         | OpenFOAM: The Open Source CFD Toolbox           |
|  \\    /   O peration     | Version:  2412                                  |
|   \\  /    A nd           | Website:  www.openfoam.com                      |
|    \\/     M anipulation  |                                                 |
\*---------------------------------------------------------------------------*/
FoamFile
{
    version     2.0;
    format      ascii;
    arch        "LSB;label=32;scalar=64";
    class       surfaceScalarField;
    location    "0.0247933";
    object      phiRhoY_Y_N2;
}
// * * * * * * * * * * * * * * * * * * * * * * * * * * * * * * * * * * * * * //

dimensions      [1 0 -1 0 0 0 0];

internalField   nonuniform List<scalar> 
99
(
11.4111
22.8269
34.243
45.6366
56.9819
68.2916
79.6072
90.9269
102.251
113.55
124.818
136.07
147.277
158.459
169.58
180.712
191.865
202.925
213.945
224.88
235.756
246.539
257.36
268.337
279.396
290.516
301.476
312.04
322.03
331.471
340.569
349.593
358.83
368.919
380.611
393.927
406.758
415.786
422.756
434.892
474.125
532.259
542.375
543.094
543.359
542.226
538.219
526.617
518.935
516.025
515.383
515.774
518.031
521.933
524.282
524.365
520.452
518.577
524.091
528.634
520.557
509.148
516.179
540.882
541.677
499.476
489.623
510.005
212.37
82.6133
54.7899
32.8844
21.4217
44.1307
41.3545
10.183
-18.3404
-35.3181
-41.0465
-40.5482
-20.2254
8.91611
31.673
36.5025
27.2843
6.55683
-24.6967
-26.5693
-8.5918
7.37106
4.523
1.20967
0.149356
-0.00350738
-0.00407567
-0.000427514
-2.04564e-05
-2.19649e-07
0
)
;

boundaryField
{
    sides
    {
        type            calculated;
        value           uniform 0;
    }
    empty
    {
        type            empty;
    }
}


// ************************************************************************* //
