/*--------------------------------*- C++ -*----------------------------------*\
| =========                 |                                                 |
| \\      /  F ield         | OpenFOAM: The Open Source CFD Toolbox           |
|  \\    /   O peration     | Version:  2412                                  |
|   \\  /    A nd           | Website:  www.openfoam.com                      |
|    \\/     M anipulation  |                                                 |
\*---------------------------------------------------------------------------*/
FoamFile
{
    version     2.0;
    format      ascii;
    arch        "LSB;label=32;scalar=64";
    class       volScalarField;
    location    "0.0247933";
    object      rhoY_Y_N2;
}
// * * * * * * * * * * * * * * * * * * * * * * * * * * * * * * * * * * * * * //

dimensions      [1 -3 0 0 0 0 0];

internalField   nonuniform List<scalar> 
100
(
0.483886
0.483911
0.484015
0.484098
0.48419
0.484229
0.484113
0.483953
0.483663
0.48346
0.483136
0.482889
0.482583
0.482146
0.481993
0.481335
0.481183
0.48047
0.480119
0.479632
0.478993
0.478529
0.477697
0.477275
0.476474
0.476148
0.475388
0.474856
0.473811
0.472651
0.471083
0.469471
0.467803
0.466391
0.465454
0.465435
0.466023
0.465867
0.463867
0.461236
0.463794
0.482565
0.495287
0.491756
0.487438
0.482763
0.476109
0.4686
0.46236
0.718845
0.513159
0.507587
0.500634
0.496291
0.494749
0.493977
0.491221
0.485043
0.48395
0.491103
0.491654
0.475996
0.468113
0.488642
0.507113
0.489734
0.448803
0.460498
0.730048
1.04757
1.0968
1.04432
1.00187
1.04359
1.0696
1.08736
1.12525
1.10964
1.11436
1.10389
1.08898
1.08997
1.07226
1.06581
1.05338
1.04939
1.08912
1.20208
1.02968
0.610267
0.241388
0.0704913
0.016265
0.00298555
0.000424166
3.99677e-05
2.24043e-06
3.97038e-08
-1.94188e-09
-1.41924e-10
)
;

boundaryField
{
    sides
    {
        type            calculated;
        value           nonuniform List<scalar> 2(0 1.12308);
    }
    empty
    {
        type            empty;
    }
}


// ************************************************************************* //
