/*--------------------------------*- C++ -*----------------------------------*\
| =========                 |                                                 |
| \\      /  F ield         | OpenFOAM: The Open Source CFD Toolbox           |
|  \\    /   O peration     | Version:  2412                                  |
|   \\  /    A nd           | Website:  www.openfoam.com                      |
|    \\/     M anipulation  |                                                 |
\*---------------------------------------------------------------------------*/
FoamFile
{
    version     2.0;
    format      ascii;
    arch        "LSB;label=32;scalar=64";
    class       volScalarField;
    location    "0.0247933";
    object      TTR;
}
// * * * * * * * * * * * * * * * * * * * * * * * * * * * * * * * * * * * * * //

dimensions      [0 0 0 1 0 0 0];

internalField   nonuniform List<scalar> 
100
(
236.001
236.007
235.852
235.856
235.691
235.71
235.612
235.743
235.512
235.883
235.154
236.241
234.477
236.859
233.653
237.422
233.114
237.412
233.088
236.948
233.373
236.267
233.761
235.613
233.986
235.054
234.109
234.61
234.003
234.12
233.686
233.638
233.283
233.151
232.945
233.005
233.143
233.074
232.667
232.543
233.536
235.673
237.141
237.385
236.034
234.483
234.872
234.925
232.474
231.245
231.811
232.245
232.027
232.685
233.19
231.6
231.062
234.209
235.39
229.725
226.404
235.042
244.087
232.917
216.389
222.442
250.207
264.302
222.807
297.677
325.564
272.579
332.653
278.814
312.821
312.151
295.304
326.023
296.396
313.393
311.886
303.067
311.901
305.643
302.377
308.64
300.084
297.721
299.68
327.121
368.984
405.855
412.976
428.101
423.678
432.136
423.37
425.557
418.637
418.862
)
;

boundaryField
{
    sides
    {
        type            zeroGradient;
    }
    empty
    {
        type            empty;
    }
}


// ************************************************************************* //
