/*--------------------------------*- C++ -*----------------------------------*\
| =========                 |                                                 |
| \\      /  F ield         | OpenFOAM: The Open Source CFD Toolbox           |
|  \\    /   O peration     | Version:  2412                                  |
|   \\  /    A nd           | Website:  www.openfoam.com                      |
|    \\/     M anipulation  |                                                 |
\*---------------------------------------------------------------------------*/
FoamFile
{
    version     2.0;
    format      ascii;
    arch        "LSB;label=32;scalar=64";
    class       volScalarField;
    location    "0.0372126";
    object      p;
}
// * * * * * * * * * * * * * * * * * * * * * * * * * * * * * * * * * * * * * //

dimensions      [1 -1 -2 0 0 0 0];

internalField   nonuniform List<scalar> 
100
(
16444.1
16454
16422.6
16477
16386.6
16513.3
16377.9
16564.2
16374.5
16599.3
16357.6
16593.4
16344.7
16556.5
16341
16504.4
16329.9
16440.4
16310.1
16386
16297
16345.3
16294.7
16313.6
16283.6
16287.3
16266.7
16263.5
16248.9
16243.8
16238.5
16229.4
16197.2
16271.3
21711.5
46869.6
54908.5
54209.3
53895.1
55428.3
57191.1
57951.5
57680.5
56836.4
57045.7
57851.3
59000
60641.7
62148.7
63234.5
64086.4
63865.8
62321.8
61527.9
62266.9
63292.9
65011.8
66142.8
67576.7
68183.8
69342.3
69044.1
69576.1
70427.3
70832.5
73305.6
71807.6
74237.9
71389.9
74653.4
74638.3
75974.4
78606.2
75998.8
79019.5
76265.6
80218.8
80569.1
83548.6
84276.4
83348.1
82835.8
82045.1
83586.2
84581
86293.3
87148.8
87973.4
88107.2
89489.3
91675.4
96795
99528
102269
101382
101502
98883.2
97446.6
96622.8
96768.5
)
;

boundaryField
{
    sides
    {
        type            zeroGradient;
    }
    empty
    {
        type            empty;
    }
}


// ************************************************************************* //
