/*--------------------------------*- C++ -*----------------------------------*\
| =========                 |                                                 |
| \\      /  F ield         | OpenFOAM: The Open Source CFD Toolbox           |
|  \\    /   O peration     | Version:  2412                                  |
|   \\  /    A nd           | Website:  www.openfoam.com                      |
|    \\/     M anipulation  |                                                 |
\*---------------------------------------------------------------------------*/
FoamFile
{
    version     2.0;
    format      ascii;
    arch        "LSB;label=32;scalar=64";
    class       volScalarField;
    location    "0.0372126";
    object      TTR;
}
// * * * * * * * * * * * * * * * * * * * * * * * * * * * * * * * * * * * * * //

dimensions      [0 0 0 1 0 0 0];

internalField   nonuniform List<scalar> 
100
(
200.897
201.009
200.635
201.26
200.184
201.694
200
202.339
200
202.889
200
203.028
200
202.628
200
202.044
200
201.441
200
200.958
200.004
200.634
200.141
200.435
200.181
200.309
200.167
200.224
200.146
200.158
200.139
200.092
200.044
200.066
210.685
252.144
270.147
272.468
272.215
273.769
275.89
276.754
276.699
275.741
275.517
276.398
277.417
279.026
280.396
281.316
281.912
281.713
280.431
278.75
279.335
279.884
281.255
281.583
284.043
283.258
285.967
284.061
285.58
285.672
284.62
290.286
282
293.587
281.844
293.129
287.17
288.21
295.934
285.118
298.555
285.748
297.667
292.523
297.381
298.517
296.787
298.194
295.645
297.889
296.158
295.283
294.418
295.222
300.286
323.246
354.5
393.526
413.632
428.066
427
429.917
424.057
423.633
421.179
421.657
)
;

boundaryField
{
    sides
    {
        type            zeroGradient;
    }
    empty
    {
        type            empty;
    }
}


// ************************************************************************* //
