/*--------------------------------*- C++ -*----------------------------------*\
| =========                 |                                                 |
| \\      /  F ield         | OpenFOAM: The Open Source CFD Toolbox           |
|  \\    /   O peration     | Version:  2412                                  |
|   \\  /    A nd           | Website:  www.openfoam.com                      |
|    \\/     M anipulation  |                                                 |
\*---------------------------------------------------------------------------*/
FoamFile
{
    version     2.0;
    format      ascii;
    arch        "LSB;label=32;scalar=64";
    class       volScalarField;
    location    "0.0116885";
    object      rho;
}
// * * * * * * * * * * * * * * * * * * * * * * * * * * * * * * * * * * * * * //

dimensions      [1 -3 0 0 0 0 0];

internalField   nonuniform List<scalar> 
100
(
1.12308
1.12308
1.12308
1.12308
1.12308
1.12308
1.12308
1.12308
1.12308
1.12308
1.1228
1.11736
1.09277
1.05359
1.0175
0.989045
0.965536
0.944364
0.924202
0.904536
0.885214
0.866211
0.847519
0.829146
0.811049
0.793304
0.775762
0.758723
0.741818
0.725492
0.709638
0.693303
0.679037
0.662626
0.648767
0.634844
0.619655
0.606508
0.592834
0.580092
0.565549
0.552807
0.540132
0.528363
0.517312
0.504494
0.490493
0.479135
0.475756
0.472546
0.463836
0.448291
0.444086
0.462897
0.485996
0.478253
0.439408
0.428866
0.465578
0.500971
0.486252
0.434063
0.421646
0.457966
0.499433
0.491306
0.44413
0.4252
0.443276
0.491697
0.502189
0.472905
0.424437
0.413649
0.435051
0.488318
0.530538
0.531982
0.509126
0.47227
0.438705
0.411966
0.394752
0.389346
0.387132
0.385023
0.378937
0.376191
0.376194
0.376613
0.379827
0.382971
0.383278
0.382783
0.380538
0.37853
0.48016
0.799456
0.875456
0.869804
)
;

boundaryField
{
    sides
    {
        type            calculated;
        value           nonuniform List<scalar> 2(0.869804 1.12308);
    }
    empty
    {
        type            empty;
    }
}


// ************************************************************************* //
