/*--------------------------------*- C++ -*----------------------------------*\
| =========                 |                                                 |
| \\      /  F ield         | OpenFOAM: The Open Source CFD Toolbox           |
|  \\    /   O peration     | Version:  2412                                  |
|   \\  /    A nd           | Website:  www.openfoam.com                      |
|    \\/     M anipulation  |                                                 |
\*---------------------------------------------------------------------------*/
FoamFile
{
    version     2.0;
    format      ascii;
    arch        "LSB;label=32;scalar=64";
    class       volScalarField;
    location    "0.0186271";
    object      rhoY_Y_N2;
}
// * * * * * * * * * * * * * * * * * * * * * * * * * * * * * * * * * * * * * //

dimensions      [1 -3 0 0 0 0 0];

internalField   nonuniform List<scalar> 
100
(
0.743917
0.744128
0.744364
0.743586
0.742288
0.741312
0.740974
0.741901
0.745161
0.751382
0.759464
0.766511
0.770299
0.770369
0.763287
0.750039
0.736085
0.723086
0.712136
0.702431
0.693434
0.683468
0.674268
0.663966
0.654776
0.645363
0.636021
0.627203
0.617995
0.609523
0.600257
0.591963
0.583138
0.574879
0.566073
0.55787
0.549678
0.541739
0.533501
0.525353
0.517571
0.510441
0.503262
0.495232
0.487552
0.481978
0.475689
0.468462
0.463783
0.721575
0.515942
0.509708
0.500943
0.495186
0.496353
0.500126
0.49416
0.475286
0.471522
0.497438
0.513703
0.4896
0.449374
0.453479
0.509869
0.53256
0.486251
0.432033
0.440761
0.511812
0.540968
0.496665
0.429476
0.428761
0.493165
0.539454
0.51802
0.446611
0.423109
0.454181
0.548409
0.900245
1.02337
1.07437
1.04623
0.971563
1.01453
1.17195
0.949489
0.504505
0.185979
0.0526137
0.0125562
0.00252319
0.00042077
5.54394e-05
5.27704e-06
3.31535e-07
1.01106e-08
3.38136e-11
)
;

boundaryField
{
    sides
    {
        type            calculated;
        value           nonuniform List<scalar> 2(0 1.12308);
    }
    empty
    {
        type            empty;
    }
}


// ************************************************************************* //
