/*--------------------------------*- C++ -*----------------------------------*\
| =========                 |                                                 |
| \\      /  F ield         | OpenFOAM: The Open Source CFD Toolbox           |
|  \\    /   O peration     | Version:  2412                                  |
|   \\  /    A nd           | Website:  www.openfoam.com                      |
|    \\/     M anipulation  |                                                 |
\*---------------------------------------------------------------------------*/
FoamFile
{
    version     2.0;
    format      ascii;
    arch        "LSB;label=32;scalar=64";
    class       volScalarField;
    location    "0.0186271";
    object      TTR;
}
// * * * * * * * * * * * * * * * * * * * * * * * * * * * * * * * * * * * * * //

dimensions      [0 0 0 1 0 0 0];

internalField   nonuniform List<scalar> 
100
(
266.959
266.985
266.494
266.523
266.356
266.334
266.301
266.418
266.764
267.417
268.227
268.932
269.276
269.21
268.355
267.273
265.602
264.834
262.705
263.246
259.942
261.989
257.15
260.27
254.937
257.909
253.216
255.397
251.614
252.741
250.075
250.293
248.254
247.85
246.455
245.73
244.397
243.396
242.346
241.541
240.489
239.271
237.922
237.399
236.921
235.335
233.851
234.184
233.205
231.681
231.88
232.046
233.027
234.704
233.128
227.252
227.435
239.162
244.906
230.139
213.947
223.636
253.588
256.787
222.772
201.498
222.167
265.175
265.722
221.806
200
216.64
263.351
272.42
232.797
200
206.996
247.771
274.065
252.232
210.667
246.223
335.997
297.514
282.869
333.927
299.813
273.484
288.582
336.225
381.604
410.888
408.982
423.223
413.948
427.778
417.212
430.692
421.797
428.48
)
;

boundaryField
{
    sides
    {
        type            zeroGradient;
    }
    empty
    {
        type            empty;
    }
}


// ************************************************************************* //
