/*--------------------------------*- C++ -*----------------------------------*\
| =========                 |                                                 |
| \\      /  F ield         | OpenFOAM: The Open Source CFD Toolbox           |
|  \\    /   O peration     | Version:  2412                                  |
|   \\  /    A nd           | Website:  www.openfoam.com                      |
|    \\/     M anipulation  |                                                 |
\*---------------------------------------------------------------------------*/
FoamFile
{
    version     2.0;
    format      ascii;
    arch        "LSB;label=32;scalar=64";
    class       volScalarField;
    location    "0.0476697";
    object      TTR;
}
// * * * * * * * * * * * * * * * * * * * * * * * * * * * * * * * * * * * * * //

dimensions      [0 0 0 1 0 0 0];

internalField   nonuniform List<scalar> 
100
(
335.408
293.908
328.627
279.235
248.201
249.682
253.334
253.868
253.227
253.658
250.64
252.262
250.422
253.822
252.882
256.725
254.661
257.724
253.988
256.209
254.45
257.697
257.819
260.685
259.837
260.752
258.316
258.167
257.989
259.633
262.362
264.884
265.327
265.695
263.739
260.918
259.636
259.934
260.413
261.895
264.29
265.586
265.954
266.207
266.141
266.094
266.551
266.881
266.913
266.544
266.842
267.226
268.153
269.16
269.76
270.156
269.679
269.431
270.089
271.621
275.625
278.238
279.286
279.771
279.525
275.737
272.544
270.489
270.669
270.924
270.734
272.19
270.546
273.935
270.746
275.206
271.546
273.579
271.491
269.197
271.978
267.67
276.169
277.597
295.156
311.096
337.283
358.751
369.073
375.792
377.343
381.022
378.414
381.741
377.405
380.43
376.445
378.325
376.393
376.754
)
;

boundaryField
{
    sides
    {
        type            zeroGradient;
    }
    empty
    {
        type            empty;
    }
}


// ************************************************************************* //
