/*--------------------------------*- C++ -*----------------------------------*\
| =========                 |                                                 |
| \\      /  F ield         | OpenFOAM: The Open Source CFD Toolbox           |
|  \\    /   O peration     | Version:  2412                                  |
|   \\  /    A nd           | Website:  www.openfoam.com                      |
|    \\/     M anipulation  |                                                 |
\*---------------------------------------------------------------------------*/
FoamFile
{
    version     2.0;
    format      ascii;
    arch        "LSB;label=32;scalar=64";
    class       volScalarField;
    location    "0.0300881";
    object      p;
}
// * * * * * * * * * * * * * * * * * * * * * * * * * * * * * * * * * * * * * //

dimensions      [1 -1 -2 0 0 0 0];

internalField   nonuniform List<scalar> 
100
(
23826
23830.1
23819.7
23832.9
23803.9
23842.2
23769.8
23871.3
23702.1
23923.6
23608.9
23977
23518.3
23986.5
23474
23938.4
23477.8
23855.3
23500.9
23757.2
23514.4
23662.5
23508.4
23578.7
23481.4
23503.7
23439.2
23434.6
23387.5
23367.4
23325.9
23298.4
23259.6
23230.2
23191.8
23162.5
23124.1
23089.8
23048.4
23023.6
23001.2
22961.1
22955.7
22946.2
22961
22986
23052
23215.1
23466.6
23678.8
23895.1
24215.4
24494.1
24770.2
24929.4
25140.7
29206.4
64636.3
86395.9
83598.2
84124.3
87217.7
86144.3
89316
82903.7
89208.4
86012.1
96032.8
99480.2
100086
104867
94680.8
101839
92354.4
98402.7
96701.5
98094.2
100619
97160.1
98479
94989.8
95978
96130.7
97350.3
98287.9
98964.5
98253.2
97962.3
96281.5
96344.1
96712.5
98164.7
97289.5
98754.3
97651
98798.3
97429.7
97803.4
96641.6
96564.1
)
;

boundaryField
{
    sides
    {
        type            zeroGradient;
    }
    empty
    {
        type            empty;
    }
}


// ************************************************************************* //
