/*--------------------------------*- C++ -*----------------------------------*\
| =========                 |                                                 |
| \\      /  F ield         | OpenFOAM: The Open Source CFD Toolbox           |
|  \\    /   O peration     | Version:  2412                                  |
|   \\  /    A nd           | Website:  www.openfoam.com                      |
|    \\/     M anipulation  |                                                 |
\*---------------------------------------------------------------------------*/
FoamFile
{
    version     2.0;
    format      ascii;
    arch        "LSB;label=32;scalar=64";
    class       volScalarField;
    location    "0.0131872";
    object      TTR;
}
// * * * * * * * * * * * * * * * * * * * * * * * * * * * * * * * * * * * * * //

dimensions      [0 0 0 1 0 0 0];

internalField   nonuniform List<scalar> 
100
(
300
300
300
300
300
299.995
299.827
298.598
295.755
292.706
290.334
288.467
286.825
285.259
283.71
282.162
280.613
279.065
277.518
275.976
274.426
272.903
271.317
269.887
268.11
267.092
264.586
264.842
260.497
263.127
256.397
260.671
253.775
256.824
251.714
253.431
249.407
249.508
247.232
246.631
244.458
242.955
241.71
240.357
239.006
238.123
236.753
233.277
231.618
233.926
236.574
235.722
227.707
222.374
231.411
248.375
244.619
219.915
210.926
233.02
260.112
249.576
215.855
206.167
230.988
260.949
254.079
221.863
207.369
222.851
252.518
259.11
236.057
210.943
208.666
231.486
261.168
269.662
248.955
217.046
200
200
211.021
235.891
262.462
285.102
301.833
312.433
317.268
321.371
320.577
326.295
327.493
400.538
415.842
427.103
402.627
424.938
394.522
418.402
)
;

boundaryField
{
    sides
    {
        type            zeroGradient;
    }
    empty
    {
        type            empty;
    }
}


// ************************************************************************* //
