/*--------------------------------*- C++ -*----------------------------------*\
| =========                 |                                                 |
| \\      /  F ield         | OpenFOAM: The Open Source CFD Toolbox           |
|  \\    /   O peration     | Version:  2412                                  |
|   \\  /    A nd           | Website:  www.openfoam.com                      |
|    \\/     M anipulation  |                                                 |
\*---------------------------------------------------------------------------*/
FoamFile
{
    version     2.0;
    format      ascii;
    arch        "LSB;label=32;scalar=64";
    class       volScalarField;
    location    "0.0388869";
    object      p;
}
// * * * * * * * * * * * * * * * * * * * * * * * * * * * * * * * * * * * * * //

dimensions      [1 -1 -2 0 0 0 0];

internalField   nonuniform List<scalar> 
100
(
15445.5
15450.9
15457.4
15463
15465.9
15462.2
15450.8
15436.7
15418
15401.1
15393.7
15387.3
15388.7
15395.3
15398.4
15403.5
15407.4
15408.7
15408.2
15406.8
15402.5
15395
15384.3
15372.7
15363.8
15352.1
15319.5
15381.2
20033.5
43365.5
51150.7
51253.1
51356.3
52063.9
52558.6
51468.3
51074.6
51650.5
52521.8
54290
56129.8
57136
57876.8
58213.1
56797.3
55245.8
55210.8
55988.8
57268
59044.2
60314.4
61250.5
62113.7
62467.2
62174.7
62395.9
63342
64391.4
65593.6
65865
65654.7
65149.9
66328.4
67258.8
68535.5
70084
69288.2
70380.3
68173.9
71643.3
71372
74978.5
76368.9
75613
76553.9
72531.3
75227.1
74210.1
77430
78289
79901.3
81256.5
81360
82107.1
82022.4
82812.4
83192.6
84323.1
84341.4
85902.5
86787.5
88365
87621.2
88112.7
87149.3
88800.8
91589.9
98414.4
103223
108387
)
;

boundaryField
{
    sides
    {
        type            zeroGradient;
    }
    empty
    {
        type            empty;
    }
}


// ************************************************************************* //
