/*--------------------------------*- C++ -*----------------------------------*\
| =========                 |                                                 |
| \\      /  F ield         | OpenFOAM: The Open Source CFD Toolbox           |
|  \\    /   O peration     | Version:  2412                                  |
|   \\  /    A nd           | Website:  www.openfoam.com                      |
|    \\/     M anipulation  |                                                 |
\*---------------------------------------------------------------------------*/
FoamFile
{
    version     2.0;
    format      ascii;
    arch        "LSB;label=32;scalar=64";
    class       volScalarField;
    location    "0.0380985";
    object      p;
}
// * * * * * * * * * * * * * * * * * * * * * * * * * * * * * * * * * * * * * //

dimensions      [1 -1 -2 0 0 0 0];

internalField   nonuniform List<scalar> 
100
(
15865.7
15865.6
15868.4
15875.8
15879.4
15886.2
15879.8
15922.7
15859.4
15932.2
15835.5
15920.4
15826.1
15884.6
15828.4
15842.6
15829.9
15832.9
15825.7
15820.5
15808.8
15799.1
15791.2
15784.8
15777.5
15769.8
15762
15755.9
15744.8
15712.2
15828.4
23459
47121.7
52750.9
52407.4
52682.7
54149.4
54998.4
54709.4
53642.7
53858.5
54552.1
55711
57526.7
59058.3
60044.6
60777
60635.5
58846
57980.3
58531
59472
61164
62580.8
63726.8
64588.4
65488.4
65399.4
65524.6
65955.1
67373.6
68030.1
69209.3
68894.1
68476.4
69913.2
69199.6
73037.5
71652.2
74601.8
72074.5
72860.5
74599.1
74137.7
79401.3
78079.7
81756.3
78390.7
78724.5
78065.7
78692.4
80462.9
81573.8
83433.7
84069.3
85325.1
86217.2
86974.2
86635.8
87149.5
87095
88267.6
88434.4
91658.6
94526.3
99022.6
101319
102056
101172
101156
)
;

boundaryField
{
    sides
    {
        type            zeroGradient;
    }
    empty
    {
        type            empty;
    }
}


// ************************************************************************* //
