/*--------------------------------*- C++ -*----------------------------------*\
| =========                 |                                                 |
| \\      /  F ield         | OpenFOAM: The Open Source CFD Toolbox           |
|  \\    /   O peration     | Version:  2412                                  |
|   \\  /    A nd           | Website:  www.openfoam.com                      |
|    \\/     M anipulation  |                                                 |
\*---------------------------------------------------------------------------*/
FoamFile
{
    version     2.0;
    format      ascii;
    arch        "LSB;label=32;scalar=64";
    class       surfaceScalarField;
    location    "0.0380985";
    object      phiRhoY_Y_N2;
}
// * * * * * * * * * * * * * * * * * * * * * * * * * * * * * * * * * * * * * //

dimensions      [1 0 -1 0 0 0 0];

internalField   nonuniform List<scalar> 
99
(
3.71786
7.43895
11.097
14.6757
18.3044
21.9437
25.664
29.5
33.3757
37.2465
41.1307
44.9956
48.8421
52.6761
56.494
60.2736
64.0197
67.6721
71.268
74.8292
78.3376
81.9587
85.6079
89.2639
92.9118
96.5596
100.174
103.757
107.644
111.974
109.402
-187.981
-437.594
-434.125
-413.409
-420.226
-433.087
-430.54
-398.62
-375.492
-373.047
-371.767
-383.112
-403.391
-413.33
-415.861
-414.262
-386.796
-340.842
-320.924
-320.572
-325.055
-340.092
-347.138
-349.85
-351.786
-347.078
-327.763
-315.708
-314.176
-315.711
-317.408
-311.938
-289.41
-271.13
-268.318
-271.828
-275.375
-274.189
-261.112
-237.502
-220.405
-219.569
-237.428
-251.029
-248.403
-236.471
-199.111
-163.166
-153.553
-152.948
-163.21
-169.279
-169.089
-158.678
-147.1
-137.292
-119.669
-83.5289
-41.8664
-15.0038
-4.01058
-0.797492
-0.0950804
-0.000111213
0.00176308
0.000192585
8.31067e-06
8.7804e-08
)
;

boundaryField
{
    sides
    {
        type            calculated;
        value           uniform 0;
    }
    empty
    {
        type            empty;
    }
}


// ************************************************************************* //
