/*--------------------------------*- C++ -*----------------------------------*\
| =========                 |                                                 |
| \\      /  F ield         | OpenFOAM: The Open Source CFD Toolbox           |
|  \\    /   O peration     | Version:  2412                                  |
|   \\  /    A nd           | Website:  www.openfoam.com                      |
|    \\/     M anipulation  |                                                 |
\*---------------------------------------------------------------------------*/
FoamFile
{
    version     2.0;
    format      ascii;
    arch        "LSB;label=32;scalar=64";
    class       volScalarField;
    location    "0.0386523";
    object      p;
}
// * * * * * * * * * * * * * * * * * * * * * * * * * * * * * * * * * * * * * //

dimensions      [1 -1 -2 0 0 0 0];

internalField   nonuniform List<scalar> 
100
(
15567
15570.8
15577.4
15583.9
15588.1
15588.7
15577.1
15562.1
15545.6
15533.8
15523.2
15519.5
15515.5
15520.8
15522.7
15529.6
15531.5
15532.7
15531.9
15529.6
15523
15513.3
15501.9
15491.3
15483.3
15477.7
15465.5
15431.5
15542.3
22883.2
46105.8
51710.7
51548.4
51876.2
52784
53302.6
52280.6
51782.2
52389.3
53169.9
54840.6
56698.1
57798.9
58580.3
59024.4
57795.6
56131.3
56034.3
56773.5
58063.6
59802.7
61090.9
62077.7
62892.7
63422.2
63033.8
63399.4
64156.6
65477.1
66207.2
67105.3
66233.7
66491
67095.4
68162.3
70141.8
69937.4
72014.5
69122.3
71694.6
70669.8
73775.5
76089.5
76039
78971.3
74695.7
76529.9
74518.1
76846.3
77866.3
79915.4
81430.4
81713.6
82582.2
82492
83397.2
84164.7
85434.2
85214.9
86010
86567.3
88406.3
87742.3
88578.7
88790.9
90605.9
93299.9
100099
104019
108442
)
;

boundaryField
{
    sides
    {
        type            zeroGradient;
    }
    empty
    {
        type            empty;
    }
}


// ************************************************************************* //
