/*--------------------------------*- C++ -*----------------------------------*\
| =========                 |                                                 |
| \\      /  F ield         | OpenFOAM: The Open Source CFD Toolbox           |
|  \\    /   O peration     | Version:  2412                                  |
|   \\  /    A nd           | Website:  www.openfoam.com                      |
|    \\/     M anipulation  |                                                 |
\*---------------------------------------------------------------------------*/
FoamFile
{
    version     2.0;
    format      ascii;
    arch        "LSB;label=32;scalar=64";
    class       volScalarField;
    location    "0.0329178";
    object      TTR;
}
// * * * * * * * * * * * * * * * * * * * * * * * * * * * * * * * * * * * * * //

dimensions      [0 0 0 1 0 0 0];

internalField   nonuniform List<scalar> 
100
(
210.634
210.675
210.494
210.721
210.222
210.919
209.723
211.375
208.955
212.062
208.237
212.624
207.896
212.611
208.059
212.112
208.537
211.474
209.051
210.881
209.416
210.421
209.603
210.103
209.679
209.904
209.675
209.753
209.61
209.637
209.543
209.555
209.464
209.446
209.375
209.329
209.315
209.161
209.314
209.254
209.057
209.122
209.169
209.445
209.69
209.846
209.859
211.305
216.968
263.756
287.77
290.719
287.455
287.65
288.593
286.875
290.262
288.52
292.134
289.175
293.232
291.05
290.724
298.734
285.992
304.153
287.15
303.05
292.593
296.092
304.219
286.982
307.545
288.641
305.804
299.183
303.551
311.389
306.525
312.167
308.224
310.571
307.532
308.401
305.726
305.403
300.727
301.228
303.941
326.471
361.47
399.107
414.956
426.944
424.628
429.193
423.402
424.05
420.799
419.49
)
;

boundaryField
{
    sides
    {
        type            zeroGradient;
    }
    empty
    {
        type            empty;
    }
}


// ************************************************************************* //
