/*--------------------------------*- C++ -*----------------------------------*\
| =========                 |                                                 |
| \\      /  F ield         | OpenFOAM: The Open Source CFD Toolbox           |
|  \\    /   O peration     | Version:  2412                                  |
|   \\  /    A nd           | Website:  www.openfoam.com                      |
|    \\/     M anipulation  |                                                 |
\*---------------------------------------------------------------------------*/
FoamFile
{
    version     2.0;
    format      ascii;
    arch        "LSB;label=32;scalar=64";
    class       surfaceScalarField;
    location    "0.015283";
    object      phiRhoY_Y_N2;
}
// * * * * * * * * * * * * * * * * * * * * * * * * * * * * * * * * * * * * * //

dimensions      [1 0 -1 0 0 0 0];

internalField   nonuniform List<scalar> 
99
(
28.2372
72.7047
113.629
144.234
167.618
187.311
205.29
222.405
238.93
254.912
270.342
285.208
299.512
313.261
326.467
339.142
351.302
362.952
374.107
384.76
394.928
404.595
413.75
422.46
430.597
438.462
445.778
452.737
459.439
465.415
471.26
476.733
481.736
486.357
490.852
495.13
498.777
502.061
505.329
508.6
511.165
513.041
514.937
517.042
518.39
519.526
521.99
522.296
519.826
519.032
520.987
528.198
530.041
521.644
507.945
509.156
540.882
546.568
518.579
489.544
497.969
556.56
562.082
519.091
479.607
488.19
558.288
568.513
529.56
481.645
480.106
531.194
568.606
551.793
491.717
475.959
497.521
562.259
579.396
552.541
488.733
453.974
458.294
505.88
573.627
604.356
584.317
284.782
34.7758
15.3597
3.18812
0.259671
0.0303105
0.00356995
0.00022748
4.5378e-06
1.20698e-08
0
0
)
;

boundaryField
{
    sides
    {
        type            calculated;
        value           uniform 0;
    }
    empty
    {
        type            empty;
    }
}


// ************************************************************************* //
