/*--------------------------------*- C++ -*----------------------------------*\
| =========                 |                                                 |
| \\      /  F ield         | OpenFOAM: The Open Source CFD Toolbox           |
|  \\    /   O peration     | Version:  2412                                  |
|   \\  /    A nd           | Website:  www.openfoam.com                      |
|    \\/     M anipulation  |                                                 |
\*---------------------------------------------------------------------------*/
FoamFile
{
    version     2.0;
    format      ascii;
    arch        "LSB;label=32;scalar=64";
    class       volScalarField;
    location    "0.0270782";
    object      TTR;
}
// * * * * * * * * * * * * * * * * * * * * * * * * * * * * * * * * * * * * * //

dimensions      [0 0 0 1 0 0 0];

internalField   nonuniform List<scalar> 
100
(
227.623
227.633
227.501
227.506
227.331
227.402
227.137
227.495
226.881
227.872
226.325
228.521
225.543
229.189
224.938
229.357
224.84
229.008
225.155
228.406
225.609
227.756
225.933
227.191
226.137
226.783
226.165
226.449
226.085
226.179
225.932
225.886
225.7
225.619
225.484
225.449
225.361
225.235
225.077
225.165
224.991
224.599
224.544
224.747
223.902
223.132
224.087
225.55
225.437
224.384
225.25
226.533
226.752
228.548
232.962
233.719
232.485
233.656
236.491
235.142
228.005
231.86
237.776
242.226
276.728
320.939
291.964
317.264
302.297
300.523
324.351
288.331
330.393
289.341
314.093
306.625
297.934
316.325
296.816
311.697
308.078
306.842
310.083
307.372
305.699
308.524
301.685
299.078
301.628
326.164
366.773
404.421
413.908
425.778
422.243
428.504
422.596
426.343
421.006
421.789
)
;

boundaryField
{
    sides
    {
        type            zeroGradient;
    }
    empty
    {
        type            empty;
    }
}


// ************************************************************************* //
