/*--------------------------------*- C++ -*----------------------------------*\
| =========                 |                                                 |
| \\      /  F ield         | OpenFOAM: The Open Source CFD Toolbox           |
|  \\    /   O peration     | Version:  2412                                  |
|   \\  /    A nd           | Website:  www.openfoam.com                      |
|    \\/     M anipulation  |                                                 |
\*---------------------------------------------------------------------------*/
FoamFile
{
    version     2.0;
    format      ascii;
    arch        "LSB;label=32;scalar=64";
    class       volScalarField;
    location    "0.047739";
    object      TTR;
}
// * * * * * * * * * * * * * * * * * * * * * * * * * * * * * * * * * * * * * //

dimensions      [0 0 0 1 0 0 0];

internalField   nonuniform List<scalar> 
100
(
331.902
293.898
330.586
289.373
251.296
250.798
253.519
253.737
253.051
252.929
250.172
252.207
250.493
254.209
253.231
256.753
254.682
257.222
253.439
256.174
254.509
258.205
258.23
260.712
259.762
260.128
257.639
258.059
258.028
260.394
263.232
265.039
265.312
265.208
262.477
260.1
259.467
259.918
260.567
262.59
264.772
265.622
265.898
266.05
265.886
266.006
266.48
266.743
266.607
266.407
266.814
267.297
268.353
269.2
269.747
269.863
269.271
269.353
270.172
272.56
276.657
278.453
279.294
279.593
278.485
274.164
271.6
270.107
270.46
270.764
270.593
272.017
270.487
273.903
270.757
275.16
271.421
273.47
271.114
268.856
271.611
267.524
276.148
277.799
295.655
311.767
338.023
359.017
369.018
375.6
377.119
380.757
378.121
381.446
377.135
380.154
376.175
378.063
376.139
376.5
)
;

boundaryField
{
    sides
    {
        type            zeroGradient;
    }
    empty
    {
        type            empty;
    }
}


// ************************************************************************* //
