/*--------------------------------*- C++ -*----------------------------------*\
| =========                 |                                                 |
| \\      /  F ield         | OpenFOAM: The Open Source CFD Toolbox           |
|  \\    /   O peration     | Version:  2412                                  |
|   \\  /    A nd           | Website:  www.openfoam.com                      |
|    \\/     M anipulation  |                                                 |
\*---------------------------------------------------------------------------*/
FoamFile
{
    version     2.0;
    format      ascii;
    arch        "LSB;label=32;scalar=64";
    class       volVectorField;
    location    "1.5644e-05";
    object      U;
}
// * * * * * * * * * * * * * * * * * * * * * * * * * * * * * * * * * * * * * //

dimensions      [0 1 -1 0 0 0 0];

internalField   nonuniform List<vector> 
1800
(
(2.9 -2.78037e-15 0)
(2.9 2.32817e-14 0)
(2.9 2.30398e-14 0)
(2.9 -1.00253e-14 0)
(2.9 5.18096e-15 0)
(2.9 -1.17444e-14 0)
(2.9 -2.28763e-14 0)
(2.9 -4.51758e-15 0)
(2.9 -1.11852e-14 0)
(2.9 -8.25469e-15 0)
(2.9 -9.50889e-15 0)
(2.9 -1.5112e-14 0)
(2.9 -1.22868e-14 0)
(2.9 -9.06316e-15 0)
(2.9 -2.99331e-14 0)
(2.9 -8.42679e-15 0)
(2.9 -7.10626e-15 0)
(2.9 -3.39949e-16 0)
(2.9 -1.52669e-14 0)
(2.9 4.40604e-15 0)
(2.9 -8.61494e-15 0)
(2.9 -1.17107e-15 0)
(2.9 1.675e-15 0)
(2.9 6.68869e-16 0)
(2.9 5.47998e-15 0)
(2.9 -6.75974e-15 0)
(2.9 -6.41929e-16 0)
(2.9 6.64144e-15 0)
(2.9 1.104e-14 0)
(2.9 2.88912e-14 0)
(2.9 -5.24655e-15 0)
(2.9 1.05031e-14 0)
(2.9 5.50136e-17 0)
(2.9 -7.30744e-15 0)
(2.9 3.08942e-14 0)
(2.9 2.73449e-15 0)
(2.9 8.96661e-16 0)
(2.9 1.32146e-14 0)
(2.9 8.21099e-15 0)
(2.9 5.07685e-16 0)
(2.9 2.90132e-15 0)
(2.9 1.54256e-14 0)
(2.9 -1.99222e-15 0)
(2.9 -1.30849e-16 0)
(2.9 -9.65808e-15 0)
(2.9 2.04439e-15 0)
(2.9 2.3527e-15 0)
(2.9 7.32683e-15 0)
(2.9 -1.94794e-14 0)
(2.9 9.59276e-15 0)
(2.9 1.28157e-14 0)
(2.9 -9.22059e-15 0)
(2.9 -7.15211e-15 0)
(2.9 -1.82604e-15 0)
(2.9 -1.43494e-15 0)
(2.9 -3.2365e-15 0)
(2.9 -6.45439e-16 0)
(2.9 1.51645e-15 0)
(2.9 -9.59618e-15 0)
(2.9 -4.14202e-17 0)
(2.9 -2.40394e-14 0)
(2.9 1.94831e-14 0)
(2.9 1.15691e-14 0)
(2.9 -8.72114e-16 0)
(2.9 -1.56212e-16 0)
(2.9 -4.79581e-14 0)
(2.9 -4.09711e-14 0)
(2.9 -2.83455e-14 0)
(2.9 -1.92166e-14 0)
(2.9 5.75018e-15 0)
(2.9 1.85018e-15 0)
(2.9 -2.1953e-14 0)
(2.9 -5.94816e-15 0)
(2.9 -4.36604e-15 0)
(2.9 -1.53587e-14 0)
(2.9 1.43734e-15 0)
(2.9 1.25093e-15 0)
(2.9 6.33571e-15 0)
(2.9 -2.30581e-14 0)
(2.9 -3.8628e-15 0)
(2.9 -1.45591e-14 0)
(2.9 -5.5151e-15 0)
(2.9 1.60482e-14 0)
(2.9 7.09402e-15 0)
(2.9 -1.35907e-14 0)
(2.9 -7.72087e-16 0)
(2.9 -5.32534e-15 0)
(2.9 -1.3376e-14 0)
(2.9 1.78323e-14 0)
(2.9 8.31571e-15 0)
(2.9 2.06967e-15 0)
(2.9 3.03879e-14 0)
(2.9 -1.50813e-15 0)
(2.9 -1.07019e-14 0)
(2.9 2.64152e-14 0)
(2.9 -1.00284e-14 0)
(2.9 1.32973e-14 0)
(2.9 4.47471e-14 0)
(2.9 3.63897e-15 0)
(2.9 -7.19363e-16 0)
(2.9 -1.37296e-14 0)
(2.9 7.75413e-15 0)
(2.9 -2.3344e-14 0)
(2.9 8.45185e-16 0)
(2.9 3.74589e-15 0)
(2.9 1.07825e-14 0)
(2.9 1.43152e-14 0)
(2.9 1.05926e-14 0)
(2.9 1.14507e-14 0)
(2.9 2.23813e-14 0)
(2.9 -7.18426e-15 0)
(2.9 -1.70595e-14 0)
(2.9 2.19058e-14 0)
(2.9 -7.79497e-15 0)
(2.9 -1.04776e-14 0)
(2.9 -1.54879e-14 0)
(2.9 -7.19582e-15 0)
(2.9 1.67519e-14 0)
(2.9 3.41942e-15 0)
(2.9 -2.74084e-15 0)
(2.9 2.85109e-15 0)
(2.9 -7.37566e-15 0)
(2.9 -6.10842e-15 0)
(2.9 5.09239e-15 0)
(2.9 1.85911e-14 0)
(2.9 -3.55961e-14 0)
(2.9 -2.07657e-14 0)
(2.9 -8.87185e-15 0)
(2.9 -7.82674e-15 0)
(2.9 -3.39757e-14 0)
(2.9 5.36898e-16 0)
(2.9 -4.8973e-15 0)
(2.9 -1.20186e-14 0)
(2.9 -9.447e-15 0)
(2.9 -1.84168e-16 0)
(2.9 2.63065e-14 0)
(2.9 1.65002e-14 0)
(2.9 3.0061e-16 0)
(2.9 -8.11395e-15 0)
(2.9 -4.12787e-15 0)
(2.9 2.06845e-14 0)
(2.9 -2.90496e-14 0)
(2.9 5.72485e-15 0)
(2.9 4.26076e-15 0)
(2.9 -2.56398e-14 0)
(2.9 4.824e-15 0)
(2.9 -3.13394e-14 0)
(2.9 -2.13907e-15 0)
(2.9 -2.96596e-15 0)
(2.9 -2.1389e-14 0)
(2.9 1.42034e-14 0)
(2.9 -8.79768e-15 0)
(2.9 -1.31682e-14 0)
(2.9 -1.35785e-14 0)
(2.9 -3.44548e-14 0)
(2.9 -1.78975e-14 0)
(2.9 -1.34066e-15 0)
(2.9 -7.5585e-15 0)
(2.9 -4.59563e-14 0)
(2.9 -4.26935e-15 0)
(2.9 4.46053e-15 0)
(2.9 -1.42833e-14 0)
(2.9 -4.19169e-15 0)
(2.9 -1.58947e-14 0)
(2.9 2.23973e-14 0)
(2.9 -6.5117e-15 0)
(2.9 2.47422e-15 0)
(2.9 9.79064e-15 0)
(2.9 1.56566e-14 0)
(2.9 -1.2301e-14 0)
(2.9 -2.98125e-15 0)
(2.9 -2.11615e-15 0)
(2.9 6.08029e-15 0)
(2.9 7.7214e-15 0)
(2.9 -9.88715e-15 0)
(2.9 2.82254e-15 0)
(2.9 -3.39321e-15 0)
(2.9 1.036e-14 0)
(2.9 2.27032e-14 0)
(2.9 -1.51761e-14 0)
(2.9 -1.35356e-15 0)
(2.9 -4.43456e-15 0)
(2.9 2.44734e-16 0)
(2.9 -2.11585e-14 0)
(2.9 -2.18089e-14 0)
(2.9 -9.66886e-15 0)
(2.9 -1.78433e-14 0)
(2.9 -8.17788e-15 0)
(2.9 -1.36046e-14 0)
(2.9 -2.3758e-14 0)
(2.9 1.85324e-14 0)
(2.9 3.8262e-17 0)
(2.9 6.84779e-16 0)
(2.9 5.11241e-15 0)
(2.9 1.22022e-14 0)
(2.9 8.8209e-15 0)
(2.9 2.10426e-16 0)
(2.9 -7.87358e-16 0)
(2.9 9.29056e-15 0)
(2.9 -6.11019e-15 0)
(2.9 1.07974e-14 0)
(2.9 1.47128e-14 0)
(2.9 -2.01839e-14 0)
(2.9 -5.77827e-15 0)
(2.9 1.22897e-14 0)
(2.9 -4.42642e-15 0)
(2.9 1.11896e-14 0)
(2.9 4.82816e-15 0)
(2.9 -1.16417e-14 0)
(2.9 6.52464e-16 0)
(2.9 1.87768e-15 0)
(2.9 8.42518e-15 0)
(2.9 -1.99776e-14 0)
(2.9 -6.94671e-16 0)
(2.9 4.90291e-15 0)
(2.9 1.66742e-14 0)
(2.9 -5.42563e-15 0)
(2.9 6.93586e-15 0)
(2.9 -1.82871e-16 0)
(2.9 -2.10478e-14 0)
(2.9 -5.2009e-15 0)
(2.9 -2.07037e-15 0)
(2.9 -1.04547e-15 0)
(2.9 -8.52734e-15 0)
(2.9 -4.0711e-15 0)
(2.9 -1.82149e-14 0)
(2.9 6.12969e-15 0)
(2.9 -8.67922e-16 0)
(2.9 2.27507e-16 0)
(2.9 6.79879e-15 0)
(2.9 -2.09028e-14 0)
(2.9 -1.50486e-15 0)
(2.9 1.37942e-14 0)
(2.9 -4.85717e-15 0)
(2.9 -1.40285e-14 0)
(2.9 3.39085e-16 0)
(2.9 1.51208e-14 0)
(2.9 -5.1712e-15 0)
(2.9 -1.1297e-15 0)
(2.9 1.9742e-15 0)
(2.9 -1.26472e-14 0)
(2.9 -1.98916e-14 0)
(2.9 1.09215e-14 0)
(2.9 1.52418e-14 0)
(2.9 -7.0725e-16 0)
(2.9 -1.70553e-14 0)
(2.9 -3.44612e-15 0)
(2.9 -3.51531e-14 0)
(2.9 2.47333e-14 0)
(2.9 3.13025e-14 0)
(2.9 1.01348e-14 0)
(2.9 1.06442e-15 0)
(2.9 1.27e-14 0)
(2.9 1.81636e-14 0)
(2.9 1.0445e-14 0)
(2.9 -1.85279e-14 0)
(2.9 -1.47295e-14 0)
(2.9 2.39952e-14 0)
(2.9 3.59099e-14 0)
(2.9 1.0276e-14 0)
(2.9 2.35411e-15 0)
(2.9 2.68644e-14 0)
(2.9 1.50059e-14 0)
(2.9 1.18393e-14 0)
(2.9 1.14942e-14 0)
(2.9 1.49951e-14 0)
(2.9 4.07924e-14 0)
(2.9 -1.52305e-14 0)
(2.9 -1.89165e-14 0)
(2.9 2.93425e-14 0)
(2.9 -5.28677e-15 0)
(2.9 2.20684e-14 0)
(2.9 2.1394e-14 0)
(2.9 1.24111e-14 0)
(2.9 -1.07847e-15 0)
(2.9 1.11396e-14 0)
(2.9 9.80708e-15 0)
(2.9 3.4248e-15 0)
(2.9 4.78405e-14 0)
(2.9 2.19563e-14 0)
(2.9 -2.57517e-14 0)
(2.9 -3.01271e-14 0)
(2.9 -9.41382e-16 0)
(2.9 1.17561e-15 0)
(2.9 -1.5113e-16 0)
(2.9 -7.06399e-15 0)
(2.9 -2.30226e-14 0)
(2.9 -1.67327e-14 0)
(2.9 -1.70501e-14 0)
(2.9 2.14861e-17 0)
(2.9 2.29619e-14 0)
(2.9 -4.39966e-15 0)
(2.9 -5.80114e-15 0)
(2.9 8.2045e-15 0)
(2.9 1.68424e-14 0)
(2.9 3.4576e-14 0)
(2.9 4.98509e-16 0)
(2.9 6.27738e-15 0)
(2.9 -3.1068e-14 0)
(2.9 3.08055e-14 0)
(2.9 1.45166e-14 0)
(2.9 -2.83927e-14 0)
(2.9 -7.69062e-15 0)
(2.9 1.74251e-14 0)
(2.9 1.695e-14 0)
(2.9 4.51288e-16 0)
(2.9 5.06309e-15 0)
(2.9 -2.22065e-14 0)
(2.9 3.72326e-15 0)
(2.9 7.90393e-15 0)
(2.9 -1.62222e-14 0)
(2.9 -2.76474e-16 0)
(2.9 5.86289e-15 0)
(2.9 7.71713e-15 0)
(2.9 -6.04543e-15 0)
(2.9 1.25563e-14 0)
(2.9 -5.75165e-16 0)
(2.9 1.29425e-14 0)
(2.9 1.28429e-14 0)
(2.9 -9.52523e-15 0)
(2.9 -7.75473e-15 0)
(2.9 1.11586e-14 0)
(2.9 2.64485e-15 0)
(2.9 6.31628e-15 0)
(2.9 5.87469e-15 0)
(2.9 -1.25655e-14 0)
(2.9 2.23237e-14 0)
(2.9 5.9788e-15 0)
(2.9 -1.89439e-14 0)
(2.9 -3.53159e-15 0)
(2.9 -1.52464e-15 0)
(2.9 3.45734e-15 0)
(2.9 2.8291e-15 0)
(2.9 9.25685e-15 0)
(2.9 -2.16909e-14 0)
(2.9 -8.23948e-15 0)
(2.9 -1.99594e-14 0)
(2.9 -9.59474e-15 0)
(2.9 7.24352e-15 0)
(2.9 8.41786e-15 0)
(2.9 -9.77443e-15 0)
(2.9 5.63372e-15 0)
(2.9 2.75168e-15 0)
(2.9 7.05961e-15 0)
(2.9 2.45683e-15 0)
(2.9 1.97216e-14 0)
(2.9 1.76927e-14 0)
(2.9 5.24264e-15 0)
(2.9 -1.46892e-14 0)
(2.9 -7.32016e-15 0)
(2.9 8.64292e-15 0)
(2.9 -2.6942e-14 0)
(2.9 -2.37347e-15 0)
(2.9 8.38084e-15 0)
(2.9 1.56776e-14 0)
(2.9 1.07975e-14 0)
(2.9 2.84884e-17 0)
(2.9 7.02243e-15 0)
(2.9 -1.34323e-14 0)
(2.9 -3.11578e-15 0)
(2.9 -4.05421e-15 0)
(2.9 7.92474e-15 0)
(2.9 -2.24146e-14 0)
(2.9 1.28849e-15 0)
(2.9 1.0537e-14 0)
(2.9 1.60007e-14 0)
(2.9 7.91553e-15 0)
(2.9 4.64427e-16 0)
(2.9 2.16129e-15 0)
(2.9 -1.04428e-14 0)
(2.9 -8.1958e-15 0)
(2.9 -1.99842e-15 0)
(2.9 -1.51936e-14 0)
(2.9 -7.907e-15 0)
(2.9 -2.09999e-15 0)
(2.9 -4.67925e-15 0)
(2.9 2.66686e-16 0)
(2.9 -1.26076e-14 0)
(2.9 -9.85586e-15 0)
(2.9 1.84913e-14 0)
(2.9 -6.16821e-15 0)
(2.9 -1.33872e-14 0)
(2.9 -4.28961e-16 0)
(2.9 -1.24395e-14 0)
(2.9 -6.31606e-15 0)
(2.9 -1.45257e-15 0)
(2.9 5.1826e-15 0)
(2.9 -1.2784e-14 0)
(2.9 1.21687e-15 0)
(2.9 -6.089e-15 0)
(2.9 -8.50275e-15 0)
(2.9 -3.98739e-15 0)
(2.9 -1.47244e-14 0)
(2.9 -5.24995e-15 0)
(2.9 2.05473e-14 0)
(2.9 -1.92645e-14 0)
(2.9 -1.13585e-14 0)
(2.9 -6.48454e-15 0)
(2.9 -6.83529e-15 0)
(2.9 -1.62133e-14 0)
(2.9 8.25641e-15 0)
(2.9 5.07808e-15 0)
(2.9 1.30876e-14 0)
(2.9 3.65994e-14 0)
(2.9 4.4683e-15 0)
(2.9 -1.44811e-14 0)
(2.9 -1.7843e-14 0)
(2.9 -7.46167e-15 0)
(2.9 -5.05307e-15 0)
(2.9 1.51802e-14 0)
(2.9 -7.77766e-15 0)
(2.9 -8.07532e-15 0)
(2.9 1.7324e-14 0)
(2.9 -7.28418e-15 0)
(2.9 -1.71999e-14 0)
(2.9 -5.3309e-15 0)
(2.9 1.19379e-15 0)
(2.9 -6.7361e-15 0)
(2.9 -2.4378e-15 0)
(2.9 -6.71829e-15 0)
(2.9 9.09097e-16 0)
(2.9 4.85612e-14 0)
(2.9 -2.57553e-14 0)
(2.9 -1.53019e-15 0)
(2.9 1.62913e-15 0)
(2.9 2.73392e-14 0)
(2.9 4.01231e-14 0)
(2.9 3.3328e-14 0)
(2.9 1.53301e-14 0)
(2.9 -1.32872e-14 0)
(2.9 -2.47222e-14 0)
(2.9 -4.72145e-15 0)
(2.9 3.00438e-14 0)
(2.9 -1.69183e-14 0)
(2.9 -2.7513e-15 0)
(2.9 2.01338e-14 0)
(2.9 7.87216e-15 0)
(2.9 1.11769e-15 0)
(2.9 4.89914e-15 0)
(2.9 -2.36353e-15 0)
(2.9 1.54865e-14 0)
(2.9 -7.76994e-16 0)
(2.9 -8.59827e-17 0)
(2.9 -8.16076e-15 0)
(2.9 1.58118e-15 0)
(2.9 2.85396e-15 0)
(2.9 1.09765e-14 0)
(2.9 3.43983e-15 0)
(2.9 3.44973e-14 0)
(2.9 1.50395e-14 0)
(2.9 -2.5296e-15 0)
(2.9 7.69355e-15 0)
(2.9 8.48581e-16 0)
(2.9 1.90927e-15 0)
(2.9 -1.36491e-15 0)
(2.9 -1.68486e-14 0)
(2.9 1.27643e-15 0)
(2.9 9.36162e-15 0)
(2.9 1.23413e-15 0)
(2.9 -2.13523e-14 0)
(2.9 -1.66951e-15 0)
(2.9 2.00754e-14 0)
(2.9 2.2742e-14 0)
(2.9 2.31835e-14 0)
(2.9 2.02472e-14 0)
(2.9 -9.75055e-15 0)
(2.9 -3.07449e-15 0)
(2.9 7.02521e-16 0)
(2.9 1.98845e-14 0)
(2.9 -1.63758e-15 0)
(2.9 -4.0722e-15 0)
(2.9 1.90882e-14 0)
(2.9 -5.30502e-16 0)
(2.9 -8.18351e-15 0)
(2.9 -2.36457e-14 0)
(2.9 -1.00852e-14 0)
(2.9 2.50427e-15 0)
(2.9 1.96233e-16 0)
(2.9 -3.85993e-17 0)
(2.9 6.65072e-15 0)
(2.9 -3.9437e-15 0)
(2.9 1.5706e-14 0)
(2.9 -3.24612e-15 0)
(2.9 -8.41523e-15 0)
(2.9 -1.14226e-14 0)
(2.9 6.81035e-15 0)
(2.9 2.38944e-14 0)
(2.9 5.09837e-15 0)
(2.9 -5.93661e-15 0)
(2.9 8.43366e-15 0)
(2.9 -3.54596e-16 0)
(2.9 -2.75205e-14 0)
(2.9 -1.87024e-14 0)
(2.9 -5.48533e-15 0)
(2.9 -1.35545e-14 0)
(2.9 -5.03372e-15 0)
(2.9 -6.65753e-15 0)
(2.9 1.53209e-14 0)
(2.9 -8.08315e-15 0)
(2.9 -3.22132e-14 0)
(2.9 8.31613e-17 0)
(2.9 -5.88389e-15 0)
(2.9 7.53009e-16 0)
(2.9 1.36748e-14 0)
(2.9 1.27695e-14 0)
(2.9 -3.20276e-14 0)
(2.9 -1.0728e-15 0)
(2.9 2.49852e-14 0)
(2.9 1.49396e-14 0)
(2.9 -4.65902e-15 0)
(2.9 -1.59474e-14 0)
(2.9 1.34773e-15 0)
(2.9 1.85665e-14 0)
(2.9 1.035e-14 0)
(2.9 -2.56139e-14 0)
(2.9 6.4465e-15 0)
(2.9 1.63722e-14 0)
(2.9 1.67555e-14 0)
(2.9 9.68255e-15 0)
(2.9 1.79579e-14 0)
(2.9 -2.36881e-14 0)
(2.9 2.45641e-14 0)
(2.9 -4.80374e-16 0)
(2.9 9.31097e-15 0)
(2.9 -1.67391e-15 0)
(2.9 1.72924e-14 0)
(2.9 -8.04038e-16 0)
(2.9 7.25553e-15 0)
(2.9 1.74567e-14 0)
(2.9 -3.00552e-14 0)
(2.9 1.99603e-14 0)
(2.9 2.07274e-14 0)
(2.9 -2.95013e-14 0)
(2.9 8.50264e-15 0)
(2.9 3.02463e-14 0)
(2.9 -2.84592e-14 0)
(2.9 -1.2036e-16 0)
(2.9 5.68283e-15 0)
(2.9 -1.94129e-17 0)
(2.9 -1.24143e-14 0)
(2.9 -2.74822e-14 0)
(2.9 -1.27254e-14 0)
(2.9 1.51985e-15 0)
(2.9 -2.2746e-15 0)
(2.9 -8.52945e-15 0)
(2.9 8.09859e-15 0)
(2.9 8.13562e-15 0)
(2.9 -8.04709e-15 0)
(2.9 -6.12294e-15 0)
(2.9 8.79513e-15 0)
(2.9 8.12845e-15 0)
(2.9 -7.76567e-15 0)
(2.9 -3.72074e-14 0)
(2.9 -1.62305e-14 0)
(2.9 -1.71162e-14 0)
(2.9 -1.6085e-14 0)
(2.9 -1.53642e-15 0)
(2.9 1.79881e-15 0)
(2.9 -2.77285e-15 0)
(2.9 -6.79429e-15 0)
(2.9 -1.80569e-14 0)
(2.9 2.25889e-15 0)
(2.9 1.53567e-15 0)
(2.9 -1.31033e-15 0)
(2.9 -2.32577e-14 0)
(2.9 7.51971e-15 0)
(2.9 -1.46717e-14 0)
(2.9 7.85014e-15 0)
(2.9 -4.37786e-15 0)
(2.9 6.79528e-15 0)
(2.9 4.54538e-15 0)
(2.9 -9.30428e-15 0)
(2.9 1.794e-14 0)
(2.9 1.95786e-15 0)
(2.9 -5.1721e-15 0)
(2.9 1.9611e-15 0)
(2.9 -1.64124e-14 0)
(2.9 -4.67427e-15 0)
(2.9 -1.034e-14 0)
(2.9 2.33283e-14 0)
(2.9 -2.27273e-15 0)
(2.9 -1.63973e-15 0)
(2.9 1.56197e-15 0)
(2.9 -2.26192e-14 0)
(2.9 -2.8244e-15 0)
(2.9 9.65007e-15 0)
(2.9 -4.68896e-15 0)
(2.9 -8.0408e-15 0)
(2.9 -1.54173e-15 0)
(2.9 1.37632e-14 0)
(2.9 -4.02278e-15 0)
(2.9 1.67976e-14 0)
(2.9 1.59473e-14 0)
(2.9 6.76342e-15 0)
(2.9 1.40768e-14 0)
(2.9 -1.03906e-14 0)
(2.9 -3.49765e-15 0)
(2.9 -1.26157e-14 0)
(2.9 -4.00187e-16 0)
(2.9 4.18462e-15 0)
(2.9 -1.33307e-14 0)
(2.9 -3.17145e-14 0)
(2.9 2.19719e-14 0)
(2.9 -7.72703e-15 0)
(2.9 -2.25526e-14 0)
(2.9 -7.46041e-15 0)
(2.9 -8.7738e-15 0)
(2.9 2.63629e-14 0)
(2.9 1.00876e-14 0)
(2.9 -1.11604e-15 0)
(2.9 -2.48486e-15 0)
(2.9 3.55472e-14 0)
(2.9 3.06314e-14 0)
(2.9 1.52063e-14 0)
(2.9 1.61433e-14 0)
(2.9 1.32886e-14 0)
(2.9 -2.25521e-16 0)
(2.9 2.43939e-16 0)
(2.9 1.11424e-14 0)
(2.9 -1.1697e-15 0)
(2.9 -3.91928e-15 0)
(2.9 -9.92988e-15 0)
(2.9 -1.3748e-14 0)
(2.9 -4.53903e-15 0)
(2.9 -1.85378e-14 0)
(2.9 2.1523e-14 0)
(2.9 -3.13527e-14 0)
(2.9 -1.61144e-14 0)
(2.9 -1.74028e-15 0)
(2.9 -8.04332e-16 0)
(2.9 6.90704e-15 0)
(2.9 -1.3214e-15 0)
(2.9 3.70241e-15 0)
(2.9 4.29371e-15 0)
(2.9 2.52838e-14 0)
(2.9 -1.55682e-14 0)
(2.9 -6.57389e-15 0)
(2.9 -1.40944e-14 0)
(2.9 -1.2904e-14 0)
(2.9 -9.78587e-15 0)
(2.9 -3.08343e-15 0)
(2.9 -1.08128e-14 0)
(2.9 -3.70477e-14 0)
(2.9 -2.08609e-15 0)
(2.9 -1.58483e-14 0)
(2.9 1.37601e-14 0)
(2.9 -3.07373e-14 0)
(2.9 -9.00682e-15 0)
(2.9 -1.82096e-14 0)
(2.9 1.88235e-14 0)
(2.9 -1.34831e-15 0)
(2.9 -1.57922e-14 0)
(2.9 -3.55051e-14 0)
(2.9 -3.56043e-14 0)
(2.9 1.22096e-14 0)
(2.9 2.53611e-14 0)
(2.9 -1.19205e-14 0)
(2.9 -2.87049e-14 0)
(2.9 7.85185e-16 0)
(2.9 -7.08672e-16 0)
(2.9 -1.77417e-15 0)
(2.9 2.60748e-15 0)
(2.9 2.70311e-14 0)
(2.9 2.71263e-15 0)
(2.9 1.93463e-14 0)
(2.9 3.7808e-16 0)
(2.9 4.00926e-15 0)
(2.9 2.05036e-14 0)
(2.9 1.36021e-14 0)
(2.9 -2.42052e-14 0)
(2.9 3.37615e-14 0)
(2.9 1.65367e-14 0)
(2.9 -3.33035e-14 0)
(2.9 1.77623e-15 0)
(2.9 2.23555e-15 0)
(2.9 2.64946e-15 0)
(2.9 -4.37187e-15 0)
(2.9 -1.84125e-15 0)
(2.9 3.00584e-15 0)
(2.9 9.11134e-16 0)
(2.9 -6.31677e-17 0)
(2.9 8.68373e-15 0)
(2.9 6.68766e-15 0)
(2.9 1.6786e-14 0)
(2.9 2.55985e-16 0)
(2.9 -2.41731e-15 0)
(2.9 -3.60673e-15 0)
(2.9 -3.25803e-15 0)
(2.9 -8.67559e-15 0)
(2.9 -1.64755e-14 0)
(2.9 -2.18566e-14 0)
(2.9 -4.76158e-14 0)
(2.9 -2.22932e-14 0)
(2.9 -1.77614e-14 0)
(2.9 -1.92326e-14 0)
(2.9 -1.04562e-15 0)
(2.9 -1.59994e-14 0)
(2.9 -2.68304e-14 0)
(2.9 2.48031e-15 0)
(2.9 -8.84329e-15 0)
(2.9 2.95197e-14 0)
(2.9 -2.2982e-14 0)
(2.9 -3.37418e-14 0)
(2.9 -1.58665e-14 0)
(2.9 -3.26498e-15 0)
(2.9 -1.07239e-14 0)
(2.9 1.29146e-14 0)
(2.9 1.00076e-14 0)
(2.9 -2.38958e-14 0)
(2.9 2.98926e-15 0)
(2.9 4.58853e-15 0)
(2.9 -4.8569e-15 0)
(2.9 1.05078e-14 0)
(2.9 -1.56189e-14 0)
(2.9 -1.42411e-14 0)
(2.9 -1.69175e-14 0)
(2.9 -5.8033e-15 0)
(2.9 -2.54853e-14 0)
(2.9 1.30348e-14 0)
(2.9 -7.13635e-16 0)
(2.9 -9.40233e-16 0)
(2.9 1.11803e-14 0)
(2.9 -2.9649e-14 0)
(2.9 1.4699e-14 0)
(2.9 -5.39354e-15 0)
(2.9 7.24847e-15 0)
(2.9 -1.71102e-15 0)
(2.9 3.12117e-15 0)
(2.9 -6.45059e-16 0)
(2.9 -4.31083e-15 0)
(2.9 1.47858e-14 0)
(2.9 -7.39401e-15 0)
(2.9 -2.50543e-15 0)
(2.9 3.33581e-15 0)
(2.9 5.36221e-15 0)
(2.9 -2.32642e-16 0)
(2.9 -2.51827e-14 0)
(2.9 -1.5543e-14 0)
(2.9 -2.11586e-14 0)
(2.9 4.867e-15 0)
(2.9 1.63566e-15 0)
(2.9 4.03714e-15 0)
(2.9 -5.80005e-15 0)
(2.9 -8.83716e-15 0)
(2.9 1.75174e-14 0)
(2.9 8.43861e-15 0)
(2.9 9.84251e-15 0)
(2.9 -7.4161e-16 0)
(2.9 -2.09561e-15 0)
(2.9 -1.76843e-15 0)
(2.9 1.75124e-14 0)
(2.9 -2.62369e-15 0)
(2.9 -3.25414e-15 0)
(2.9 -1.03475e-15 0)
(2.9 1.00459e-14 0)
(2.9 -3.05215e-15 0)
(2.9 1.37948e-14 0)
(2.9 1.15639e-14 0)
(2.9 -1.36534e-14 0)
(2.9 -9.09561e-16 0)
(2.9 1.44432e-14 0)
(2.9 5.10313e-15 0)
(2.9 -1.079e-14 0)
(2.9 1.57695e-15 0)
(2.9 -6.30432e-16 0)
(2.9 -9.02378e-15 0)
(2.9 -2.92082e-15 0)
(2.9 -8.58624e-15 0)
(2.9 1.39786e-14 0)
(2.9 -9.21149e-16 0)
(2.9 -2.56879e-14 0)
(2.9 -2.13058e-14 0)
(2.9 2.67538e-14 0)
(2.9 1.92671e-15 0)
(2.9 -1.6683e-14 0)
(2.9 -1.83816e-15 0)
(2.9 -1.32437e-14 0)
(2.9 1.43065e-14 0)
(2.9 4.65603e-15 0)
(2.9 -2.90015e-15 0)
(2.9 -4.12102e-15 0)
(2.9 1.64302e-14 0)
(2.9 -2.81187e-15 0)
(2.9 7.01556e-16 0)
(2.9 -3.19786e-15 0)
(2.9 8.0859e-17 0)
(2.9 8.36017e-16 0)
(2.9 -7.2277e-15 0)
(2.9 -2.04622e-14 0)
(2.9 -5.11952e-15 0)
(2.9 1.09028e-14 0)
(2.9 -3.34412e-14 0)
(2.9 1.21788e-14 0)
(2.9 -9.07681e-15 0)
(2.9 -4.00675e-14 0)
(2.9 -1.14596e-14 0)
(2.9 1.4837e-14 0)
(2.9 1.49304e-14 0)
(2.9 -9.36562e-15 0)
(2.9 3.40783e-14 0)
(2.9 1.0019e-14 0)
(2.9 1.75453e-14 0)
(2.9 1.81563e-14 0)
(2.9 -1.60192e-14 0)
(2.9 1.88234e-14 0)
(2.9 -9.57826e-18 0)
(2.9 1.85456e-14 0)
(2.9 6.00042e-15 0)
(2.9 -3.47803e-15 0)
(2.9 -4.38474e-16 0)
(2.9 -1.15357e-14 0)
(2.9 1.83065e-14 0)
(2.9 2.42238e-15 0)
(2.9 8.85006e-15 0)
(2.9 2.58509e-14 0)
(2.9 9.60553e-15 0)
(2.9 3.32278e-15 0)
(2.9 1.28295e-14 0)
(2.9 6.02549e-15 0)
(2.9 7.35403e-15 0)
(2.9 1.08293e-14 0)
(2.9 1.27506e-14 0)
(2.9 1.8679e-14 0)
(2.9 -1.93442e-14 0)
(2.9 4.82365e-15 0)
(2.9 1.56239e-14 0)
(2.9 2.48364e-14 0)
(2.9 1.58425e-14 0)
(2.9 2.90876e-14 0)
(2.9 -8.96003e-15 0)
(2.9 -1.04538e-16 0)
(2.9 3.09049e-14 0)
(2.9 3.59384e-15 0)
(2.9 3.24087e-14 0)
(2.9 6.93224e-15 0)
(2.9 1.33279e-14 0)
(2.9 1.86004e-14 0)
(2.9 3.07638e-14 0)
(2.9 9.82397e-15 0)
(2.9 -7.67979e-15 0)
(2.9 -1.79098e-16 0)
(2.9 -4.97749e-15 0)
(2.9 -9.44394e-16 0)
(2.9 -4.31625e-15 0)
(2.9 -1.10062e-14 0)
(2.9 -7.39841e-15 0)
(2.9 6.64751e-16 0)
(2.9 1.05845e-14 0)
(2.9 5.11587e-15 0)
(2.9 2.61337e-14 0)
(2.9 -7.41308e-16 0)
(2.9 4.10204e-15 0)
(2.9 -6.69796e-15 0)
(2.9 -2.35181e-14 0)
(2.9 -5.64899e-15 0)
(2.9 -1.35757e-15 0)
(2.9 2.2247e-14 0)
(2.9 1.14886e-14 0)
(2.9 -2.1577e-15 0)
(2.9 -1.70641e-15 0)
(2.9 1.34955e-15 0)
(2.9 -8.90844e-16 0)
(2.9 1.16402e-14 0)
(2.9 -5.5647e-16 0)
(2.9 1.17449e-14 0)
(2.9 -1.29595e-14 0)
(2.9 -2.58658e-14 0)
(2.9 -5.76292e-15 0)
(2.9 -2.24151e-14 0)
(2.9 6.62499e-15 0)
(2.9 9.34465e-15 0)
(2.9 -2.53569e-14 0)
(2.9 -3.39265e-14 0)
(2.9 6.15635e-15 0)
(2.9 8.63039e-15 0)
(2.9 8.55294e-15 0)
(2.9 8.51416e-15 0)
(2.9 -1.96167e-14 0)
(2.9 5.34136e-15 0)
(2.9 -4.72753e-15 0)
(2.9 4.7491e-15 0)
(2.9 1.8677e-14 0)
(2.9 1.5855e-14 0)
(2.9 -2.75216e-14 0)
(2.9 -1.29946e-14 0)
(2.9 -5.50635e-15 0)
(2.9 4.63517e-15 0)
(2.9 6.80074e-16 0)
(2.9 9.48426e-15 0)
(2.9 -1.6198e-14 0)
(2.9 -1.18039e-15 0)
(2.9 1.10662e-14 0)
(2.9 -2.00772e-14 0)
(2.9 -4.45458e-15 0)
(2.9 -7.89321e-17 0)
(2.9 -9.73094e-15 0)
(2.9 1.90273e-14 0)
(2.9 1.00442e-14 0)
(2.9 2.10522e-14 0)
(2.9 4.2084e-15 0)
(2.9 4.64928e-15 0)
(2.9 -5.59935e-15 0)
(2.9 -1.8371e-15 0)
(2.9 -2.26003e-14 0)
(2.9 1.23185e-15 0)
(2.9 6.80047e-15 0)
(2.9 -6.22409e-15 0)
(2.9 -1.0907e-14 0)
(2.9 -5.82262e-15 0)
(2.9 1.98345e-14 0)
(2.9 -2.3683e-14 0)
(2.9 -9.27252e-15 0)
(2.9 -3.46333e-15 0)
(2.9 2.5644e-14 0)
(2.9 1.35982e-14 0)
(2.9 -1.72935e-14 0)
(2.9 1.25776e-14 0)
(2.9 8.65039e-15 0)
(2.9 -1.09132e-14 0)
(2.9 2.44883e-15 0)
(2.9 1.12806e-17 0)
(2.9 -4.73717e-15 0)
(2.9 -3.71735e-16 0)
(2.9 6.10043e-15 0)
(2.9 -1.83683e-14 0)
(2.9 2.8621e-14 0)
(2.9 7.01269e-16 0)
(2.9 -1.00729e-14 0)
(2.9 2.21887e-14 0)
(2.9 -3.80163e-16 0)
(2.9 3.77876e-15 0)
(2.9 -7.35238e-15 0)
(2.9 -3.902e-16 0)
(2.9 -8.64557e-15 0)
(2.9 -1.17201e-14 0)
(2.9 5.13519e-15 0)
(2.9 7.45105e-15 0)
(2.9 -2.59221e-14 0)
(2.9 3.54674e-15 0)
(2.9 1.27466e-14 0)
(2.9 -2.82868e-14 0)
(2.9 3.19822e-15 0)
(2.9 4.46408e-15 0)
(2.9 2.92159e-15 0)
(2.9 -1.84415e-14 0)
(2.9 2.14512e-15 0)
(2.9 6.96427e-15 0)
(2.9 -1.12929e-14 0)
(2.9 -1.03582e-14 0)
(2.9 5.70885e-15 0)
(2.9 1.05529e-14 0)
(2.9 -2.18751e-15 0)
(2.9 2.99804e-14 0)
(2.9 2.74891e-15 0)
(2.9 4.6324e-16 0)
(2.9 -1.44773e-14 0)
(2.9 -3.1517e-16 0)
(2.9 2.15369e-14 0)
(2.9 -1.41312e-14 0)
(2.9 2.15157e-15 0)
(2.9 3.62183e-14 0)
(2.9 -1.95319e-15 0)
(2.9 -1.9938e-15 0)
(2.9 2.19324e-14 0)
(2.9 2.74591e-14 0)
(2.9 9.95973e-16 0)
(2.9 -2.08795e-14 0)
(2.9 -3.52804e-14 0)
(2.9 4.9317e-15 0)
(2.9 -2.61227e-14 0)
(2.9 1.02712e-14 0)
(2.9 1.07513e-14 0)
(2.9 4.34861e-14 0)
(2.9 3.04906e-14 0)
(2.9 4.07144e-14 0)
(2.9 3.1058e-14 0)
(2.9 -1.86711e-15 0)
(2.9 -5.07316e-15 0)
(2.9 3.2328e-14 0)
(2.9 1.49195e-14 0)
(2.9 1.32089e-15 0)
(2.9 -1.82329e-15 0)
(2.9 1.7134e-15 0)
(2.9 -7.4334e-15 0)
(2.9 -1.03953e-14 0)
(2.9 -1.62467e-15 0)
(2.9 1.89402e-14 0)
(2.9 3.70342e-14 0)
(2.9 4.72775e-15 0)
(2.9 -8.80581e-15 0)
(2.9 1.26904e-14 0)
(2.9 5.95944e-14 0)
(2.9 3.53282e-14 0)
(2.9 -6.23269e-15 0)
(2.9 2.71712e-15 0)
(2.9 2.42283e-15 0)
(2.9 -1.09652e-14 0)
(2.9 2.96435e-14 0)
(2.9 1.19393e-14 0)
(2.9 -1.20073e-14 0)
(2.9 -2.79491e-14 0)
(2.9 1.92752e-15 0)
(2.9 -1.07498e-14 0)
(2.9 4.37893e-14 0)
(2.9 4.2079e-14 0)
(2.9 2.075e-14 0)
(2.9 6.99611e-15 0)
(2.9 -2.54157e-14 0)
(2.9 2.04682e-14 0)
(2.9 1.17512e-14 0)
(2.9 7.14046e-15 0)
(2.9 -3.79704e-14 0)
(2.9 -3.697e-15 0)
(2.9 1.93868e-15 0)
(2.9 6.12189e-15 0)
(2.9 2.14662e-14 0)
(2.9 -1.33327e-14 0)
(2.9 1.02816e-15 0)
(2.9 -1.0199e-14 0)
(2.9 -4.22515e-15 0)
(2.9 3.2601e-15 0)
(2.9 -1.44303e-14 0)
(2.9 -1.07103e-14 0)
(2.9 -6.36426e-15 0)
(2.9 9.03979e-15 0)
(2.9 3.06357e-16 0)
(2.9 2.60206e-14 0)
(2.9 7.4257e-16 0)
(2.9 8.92116e-15 0)
(2.9 -1.92733e-14 0)
(2.9 -1.94265e-15 0)
(2.9 -4.63224e-15 0)
(2.9 1.89426e-14 0)
(2.9 2.07499e-15 0)
(2.9 -3.77429e-15 0)
(2.9 3.43744e-15 0)
(2.9 8.35622e-16 0)
(2.9 1.85014e-15 0)
(2.9 1.58593e-14 0)
(2.9 1.41754e-16 0)
(2.9 6.16588e-15 0)
(2.9 -7.75904e-15 0)
(2.9 1.10617e-14 0)
(2.9 -1.90803e-15 0)
(2.9 -1.79723e-15 0)
(2.9 -9.12272e-15 0)
(2.9 2.68127e-14 0)
(2.9 1.24784e-14 0)
(2.9 2.19677e-15 0)
(2.9 3.2665e-15 0)
(2.9 -3.3748e-15 0)
(2.9 4.95282e-16 0)
(2.9 1.00355e-15 0)
(2.9 1.94108e-14 0)
(2.9 1.53727e-14 0)
(2.9 2.1246e-15 0)
(2.9 7.33161e-15 0)
(2.9 1.33699e-14 0)
(2.9 -3.08525e-15 0)
(2.9 7.08179e-15 0)
(2.9 -2.51628e-15 0)
(2.9 -1.02963e-15 0)
(2.9 1.90928e-15 0)
(2.9 1.63917e-14 0)
(2.9 1.86126e-14 0)
(2.9 1.35238e-14 0)
(2.9 -5.80237e-16 0)
(2.9 -1.13073e-14 0)
(2.9 1.86335e-15 0)
(2.9 -2.08061e-15 0)
(2.9 -5.42788e-15 0)
(2.9 1.95923e-14 0)
(2.9 -3.91955e-15 0)
(2.9 2.70573e-15 0)
(2.9 -1.43814e-14 0)
(2.9 -6.68972e-15 0)
(2.9 7.8407e-15 0)
(2.9 -4.72298e-15 0)
(2.9 -5.8272e-15 0)
(2.9 1.91527e-14 0)
(2.9 -2.1903e-14 0)
(2.9 1.29106e-14 0)
(2.9 6.65897e-15 0)
(2.9 -1.41198e-14 0)
(2.9 -1.66906e-14 0)
(2.9 -8.15749e-15 0)
(2.9 -2.19962e-14 0)
(2.9 2.15565e-14 0)
(2.9 1.09031e-14 0)
(2.9 -2.49862e-15 0)
(2.9 -1.65588e-14 0)
(2.9 9.02279e-15 0)
(2.9 -2.09666e-14 0)
(2.9 -1.75648e-14 0)
(2.9 -2.25218e-15 0)
(2.9 -3.86854e-16 0)
(2.9 -1.75567e-15 0)
(2.9 1.43116e-14 0)
(2.9 -8.5522e-15 0)
(2.9 -2.71843e-15 0)
(2.9 -1.46759e-14 0)
(2.9 -1.21635e-15 0)
(2.9 -3.45764e-14 0)
(2.9 -1.21567e-14 0)
(2.9 2.89087e-16 0)
(2.9 -4.85884e-15 0)
(2.9 -1.32088e-14 0)
(2.9 -7.26574e-15 0)
(2.9 5.35474e-15 0)
(2.9 3.10186e-14 0)
(2.9 8.71712e-15 0)
(2.9 -8.80685e-15 0)
(2.9 1.70671e-14 0)
(2.9 1.39361e-14 0)
(2.9 2.23294e-14 0)
(2.9 2.13346e-15 0)
(2.9 -7.89215e-15 0)
(2.9 -3.64873e-14 0)
(2.9 5.8298e-15 0)
(2.9 -6.25488e-15 0)
(2.9 3.90935e-15 0)
(2.9 -1.11787e-14 0)
(2.9 1.59345e-14 0)
(2.9 -1.15429e-14 0)
(2.9 -1.06209e-14 0)
(2.9 -1.12229e-14 0)
(2.9 -5.00585e-15 0)
(2.9 1.63595e-14 0)
(2.9 -1.41395e-14 0)
(2.9 9.48606e-15 0)
(2.9 -7.30191e-15 0)
(2.9 2.48825e-15 0)
(2.9 9.8411e-15 0)
(2.9 1.51135e-14 0)
(2.9 1.70751e-14 0)
(2.9 1.23533e-15 0)
(2.9 1.27418e-15 0)
(2.9 8.031e-17 0)
(2.9 -2.21824e-14 0)
(2.9 -1.32296e-14 0)
(2.9 8.34008e-15 0)
(2.9 4.18616e-15 0)
(2.9 1.45759e-14 0)
(2.9 -3.30968e-14 0)
(2.9 6.36124e-16 0)
(2.9 6.71998e-15 0)
(2.9 -1.57234e-14 0)
(2.9 -4.13209e-15 0)
(2.9 3.36316e-15 0)
(2.9 1.52324e-14 0)
(2.9 -5.36599e-15 0)
(2.9 1.3749e-14 0)
(2.9 3.34436e-16 0)
(2.9 -1.21176e-14 0)
(2.9 -2.30534e-15 0)
(2.9 -3.54089e-15 0)
(2.9 -9.37584e-15 0)
(2.9 -7.1016e-15 0)
(2.9 -2.35682e-14 0)
(2.9 1.65378e-14 0)
(2.9 1.1807e-15 0)
(2.9 9.41771e-15 0)
(2.9 2.17071e-14 0)
(2.9 2.97971e-14 0)
(2.9 9.58979e-15 0)
(2.9 1.8416e-14 0)
(2.9 -5.15242e-15 0)
(2.9 -2.64495e-14 0)
(2.9 2.82654e-14 0)
(2.9 -4.67048e-16 0)
(2.9 6.83593e-16 0)
(2.9 2.1387e-14 0)
(2.9 9.55438e-15 0)
(2.9 -2.53504e-14 0)
(2.9 -7.46853e-15 0)
(2.9 1.37216e-14 0)
(2.9 -3.61061e-14 0)
(2.9 -1.18748e-14 0)
(2.9 -4.1555e-16 0)
(2.9 1.53113e-14 0)
(2.9 3.28986e-14 0)
(2.9 -1.04954e-14 0)
(2.9 9.82394e-15 0)
(2.9 -6.53943e-15 0)
(2.9 -1.86981e-14 0)
(2.9 -8.0384e-15 0)
(2.9 -1.22516e-14 0)
(2.9 2.79814e-14 0)
(2.9 -1.01622e-16 0)
(2.9 2.95092e-14 0)
(2.9 1.20312e-14 0)
(2.9 6.14888e-15 0)
(2.9 2.34687e-14 0)
(2.9 1.70299e-15 0)
(2.9 7.8987e-15 0)
(2.9 3.82088e-14 0)
(2.9 1.70662e-15 0)
(2.9 1.13986e-14 0)
(2.9 -2.90607e-14 0)
(2.9 -2.05769e-14 0)
(2.9 -2.33776e-14 0)
(2.9 -3.43339e-14 0)
(2.9 2.50748e-16 0)
(2.9 1.52916e-14 0)
(2.9 -2.96548e-14 0)
(2.9 2.40837e-15 0)
(2.9 1.63232e-14 0)
(2.9 -1.35104e-15 0)
(2.9 -2.12121e-14 0)
(2.9 -1.28315e-14 0)
(2.9 -1.82966e-14 0)
(2.9 6.84263e-16 0)
(2.9 2.06047e-14 0)
(2.9 -9.75186e-15 0)
(2.9 -7.64353e-15 0)
(2.9 -1.47892e-14 0)
(2.9 1.39973e-14 0)
(2.9 7.19246e-16 0)
(2.9 -1.16126e-14 0)
(2.9 -1.28398e-14 0)
(2.9 1.75486e-14 0)
(2.9 9.49007e-15 0)
(2.9 1.4221e-14 0)
(2.9 1.44694e-14 0)
(2.9 1.54107e-15 0)
(2.9 -4.9064e-15 0)
(2.9 -3.99209e-15 0)
(2.9 -1.26153e-14 0)
(2.9 1.51882e-15 0)
(2.9 -1.59727e-14 0)
(2.9 -8.35594e-15 0)
(2.9 -8.90982e-16 0)
(2.9 2.18132e-16 0)
(2.9 3.86123e-15 0)
(2.9 1.68491e-15 0)
(2.9 1.02354e-15 0)
(2.9 2.60145e-14 0)
(2.9 7.55866e-15 0)
(2.9 -6.75499e-15 0)
(2.9 3.08626e-15 0)
(2.9 -7.6853e-15 0)
(2.9 -1.14981e-14 0)
(2.9 1.06717e-15 0)
(2.9 -1.23338e-14 0)
(2.9 -2.0108e-15 0)
(2.9 -2.24504e-14 0)
(2.9 -1.57341e-14 0)
(2.9 8.01826e-15 0)
(2.9 -2.49517e-15 0)
(2.9 1.19872e-15 0)
(2.9 1.16366e-14 0)
(2.9 1.10163e-14 0)
(2.9 4.89209e-15 0)
(2.9 1.82864e-15 0)
(2.9 1.54834e-14 0)
(2.9 8.72917e-15 0)
(2.9 1.14356e-14 0)
(2.9 1.37648e-15 0)
(2.9 1.31455e-15 0)
(2.9 -3.41905e-16 0)
(2.9 -4.99436e-15 0)
(2.9 -4.08202e-15 0)
(2.9 -3.10571e-15 0)
(2.9 -3.50705e-15 0)
(2.9 -2.79766e-15 0)
(2.9 -1.88402e-14 0)
(2.9 2.28147e-14 0)
(2.9 -7.66044e-15 0)
(2.9 -1.08279e-14 0)
(2.9 1.57118e-14 0)
(2.9 -1.30863e-14 0)
(2.9 -9.40002e-16 0)
(2.9 -1.33294e-14 0)
(2.9 8.92861e-15 0)
(2.9 3.92201e-14 0)
(2.9 1.9624e-14 0)
(2.9 7.6502e-15 0)
(2.9 1.21091e-14 0)
(2.9 1.50428e-14 0)
(2.9 -1.41537e-14 0)
(2.9 1.38568e-14 0)
(2.9 -1.15933e-15 0)
(2.9 -2.93672e-14 0)
(2.9 -1.64968e-14 0)
(2.9 2.47213e-16 0)
(2.9 -2.654e-15 0)
(2.9 -5.94378e-15 0)
(2.9 5.45208e-15 0)
(2.9 -1.68873e-14 0)
(2.9 -2.94706e-15 0)
(2.9 -1.65664e-15 0)
(2.9 -2.53862e-14 0)
(2.9 -8.60571e-15 0)
(2.9 -1.39911e-15 0)
(2.9 -2.77856e-14 0)
(2.9 -1.47254e-14 0)
(2.9 6.33714e-15 0)
(2.9 1.49866e-14 0)
(2.9 1.73155e-15 0)
(2.9 1.127e-14 0)
(2.9 -2.95597e-14 0)
(2.9 -1.14106e-14 0)
(2.9 -8.68246e-15 0)
(2.9 -1.91755e-14 0)
(2.9 9.3075e-15 0)
(2.9 -1.42496e-14 0)
(2.9 -1.94364e-14 0)
(2.9 -2.50187e-14 0)
(2.9 -1.24031e-14 0)
(2.9 -2.64516e-14 0)
(2.9 -3.15992e-14 0)
(2.9 -9.28634e-15 0)
(2.9 -1.13724e-14 0)
(2.9 -7.77158e-16 0)
(2.9 -2.67986e-14 0)
(2.9 -1.31735e-14 0)
(2.9 2.05317e-14 0)
(2.9 -3.49203e-15 0)
(2.9 3.84343e-14 0)
(2.9 2.05093e-14 0)
(2.9 1.22255e-14 0)
(2.9 1.37896e-14 0)
(2.9 -2.20554e-14 0)
(2.9 1.90337e-15 0)
(2.9 1.39432e-14 0)
(2.9 -1.25567e-15 0)
(2.9 -1.18969e-14 0)
(2.9 -3.21173e-15 0)
(2.9 -3.90249e-15 0)
(2.9 2.05078e-14 0)
(2.9 2.74691e-14 0)
(2.9 -8.43689e-15 0)
(2.9 -9.90691e-15 0)
(2.9 7.16168e-15 0)
(2.9 4.45628e-15 0)
(2.9 1.52843e-14 0)
(2.9 -8.81253e-15 0)
(2.9 -1.11184e-14 0)
(2.9 2.88704e-16 0)
(2.9 -2.85009e-15 0)
(2.9 -5.26667e-15 0)
(2.9 -1.47379e-14 0)
(2.9 -9.86286e-15 0)
(2.9 2.61547e-15 0)
(2.9 7.50399e-15 0)
(2.9 9.98415e-15 0)
(2.9 -1.46123e-15 0)
(2.9 -1.39553e-15 0)
(2.9 6.677e-15 0)
(2.9 -2.77e-14 0)
(2.9 3.62728e-16 0)
(2.9 -1.64643e-14 0)
(2.9 -1.78895e-15 0)
(2.9 -5.78149e-15 0)
(2.9 8.8158e-15 0)
(2.9 8.28046e-15 0)
(2.9 1.24093e-14 0)
(2.9 3.54681e-14 0)
(2.9 1.10379e-14 0)
(2.9 -6.39226e-15 0)
(2.9 -1.75604e-14 0)
(2.9 8.0815e-15 0)
(2.9 1.08347e-14 0)
(2.9 -8.10338e-15 0)
(2.9 1.23993e-14 0)
(2.9 1.21351e-14 0)
(2.9 3.14237e-14 0)
(2.9 -8.39082e-15 0)
(2.9 -1.27568e-15 0)
(2.9 -3.83415e-14 0)
(2.9 2.64403e-14 0)
(2.9 -6.65224e-16 0)
(2.9 7.14628e-15 0)
(2.9 1.24674e-14 0)
(2.9 -2.1044e-14 0)
(2.9 -1.45069e-14 0)
(2.9 -1.58979e-14 0)
(2.9 -8.56594e-15 0)
(2.9 2.77055e-14 0)
(2.9 2.16002e-14 0)
(2.9 -6.36515e-15 0)
(2.9 -9.17857e-15 0)
(2.9 3.80918e-15 0)
(2.9 1.54502e-14 0)
(2.9 -2.71148e-15 0)
(2.9 8.12922e-15 0)
(2.9 -9.22374e-15 0)
(2.9 -4.6946e-15 0)
(2.9 -1.22631e-14 0)
(2.9 3.37207e-15 0)
(2.9 -3.8718e-14 0)
(2.9 3.41748e-15 0)
(2.9 -1.1709e-15 0)
(2.9 1.34098e-15 0)
(2.9 -2.16041e-14 0)
(2.9 -4.22034e-15 0)
(2.9 -2.47022e-15 0)
(2.9 -3.12555e-15 0)
(2.9 -8.61249e-15 0)
(2.9 -1.88227e-15 0)
(2.9 5.15016e-15 0)
(2.9 1.04656e-14 0)
(2.9 2.83297e-14 0)
(2.9 -1.38358e-14 0)
(2.9 -1.97158e-15 0)
(2.9 2.65894e-15 0)
(2.9 1.53828e-16 0)
(2.9 -5.84071e-16 0)
(2.9 -9.84577e-16 0)
(2.9 1.74676e-15 0)
(2.9 1.46659e-14 0)
(2.9 1.58583e-14 0)
(2.9 -1.32978e-15 0)
(2.9 1.04254e-14 0)
(2.9 -1.80574e-14 0)
(2.9 1.0715e-14 0)
(2.9 1.31997e-14 0)
(2.9 1.00452e-14 0)
(2.9 1.32348e-14 0)
(2.9 -2.57259e-15 0)
(2.9 -1.13076e-15 0)
(2.9 7.83865e-15 0)
(2.9 3.0044e-14 0)
(2.9 2.5229e-14 0)
(2.9 -1.92169e-14 0)
(2.9 -8.43532e-15 0)
(2.9 2.66791e-14 0)