/*--------------------------------*- C++ -*----------------------------------*\
| =========                 |                                                 |
| \\      /  F ield         | OpenFOAM: The Open Source CFD Toolbox           |
|  \\    /   O peration     | Version:  2412                                  |
|   \\  /    A nd           | Website:  www.openfoam.com                      |
|    \\/     M anipulation  |                                                 |
\*---------------------------------------------------------------------------*/
FoamFile
{
    version     2.0;
    format      ascii;
    arch        "LSB;label=32;scalar=64";
    class       volScalarField;
    location    "0.0215013";
    object      rhoY_Y_N2;
}
// * * * * * * * * * * * * * * * * * * * * * * * * * * * * * * * * * * * * * //

dimensions      [1 -3 0 0 0 0 0];

internalField   nonuniform List<scalar> 
100
(
0.597567
0.59759
0.597769
0.597799
0.597675
0.59737
0.596918
0.596443
0.595928
0.595447
0.594933
0.594464
0.59384
0.593158
0.592116
0.590603
0.589162
0.587723
0.587403
0.586412
0.587251
0.589048
0.591749
0.595691
0.60247
0.613658
0.6182
0.611111
0.601002
0.590605
0.578926
0.569184
0.560554
0.552585
0.546212
0.541597
0.53527
0.528005
0.520692
0.513638
0.506938
0.500442
0.494826
0.489253
0.482167
0.475457
0.47143
0.466968
0.461827
0.719493
0.515839
0.510274
0.503086
0.498688
0.493584
0.489446
0.492322
0.495398
0.485632
0.472062
0.47757
0.503958
0.505747
0.467219
0.446846
0.476849
0.528851
0.518472
0.449678
0.426919
0.477642
0.543124
0.526364
0.444766
0.438893
0.794698
1.0959
1.05529
1.05614
1.04354
1.02799
1.03936
1.02758
1.03684
1.05858
1.04563
1.07659
1.20534
1.04201
0.62632
0.248353
0.0706783
0.014816
0.00230674
0.000282692
2.73705e-05
2.1077e-06
1.17056e-07
3.18215e-09
-7.8663e-11
)
;

boundaryField
{
    sides
    {
        type            calculated;
        value           nonuniform List<scalar> 2(0 1.12308);
    }
    empty
    {
        type            empty;
    }
}


// ************************************************************************* //
