/*--------------------------------*- C++ -*----------------------------------*\
| =========                 |                                                 |
| \\      /  F ield         | OpenFOAM: The Open Source CFD Toolbox           |
|  \\    /   O peration     | Version:  2412                                  |
|   \\  /    A nd           | Website:  www.openfoam.com                      |
|    \\/     M anipulation  |                                                 |
\*---------------------------------------------------------------------------*/
FoamFile
{
    version     2.0;
    format      ascii;
    arch        "LSB;label=32;scalar=64";
    class       volScalarField;
    location    "0.0175973";
    object      rho;
}
// * * * * * * * * * * * * * * * * * * * * * * * * * * * * * * * * * * * * * //

dimensions      [1 -3 0 0 0 0 0];

internalField   nonuniform List<scalar> 
100
(
0.81204
0.811492
0.811715
0.813979
0.818411
0.82641
0.83634
0.84347
0.84581
0.842405
0.8313
0.816515
0.801985
0.788986
0.777278
0.76605
0.754762
0.74352
0.732326
0.721381
0.710683
0.699916
0.689847
0.678914
0.66932
0.658685
0.648963
0.639324
0.629443
0.620229
0.610529
0.601765
0.592059
0.583235
0.574043
0.565537
0.556432
0.547644
0.539002
0.530959
0.522806
0.514234
0.50578
0.498488
0.491732
0.483691
0.476235
0.47116
0.465274
0.459603
0.457634
0.458888
0.463211
0.465778
0.460048
0.450276
0.453198
0.475501
0.481923
0.453024
0.430665
0.446988
0.496712
0.499575
0.443395
0.414046
0.441539
0.509665
0.512667
0.446903
0.40859
0.428433
0.500507
0.51943
0.470948
0.414676
0.416109
0.471859
0.517883
0.504508
0.441957
0.405152
0.44571
0.821249
1.08084
0.999574
1.03053
1.12313
1.05618
0.950393
0.887857
0.868455
0.860151
0.855736
0.857674
0.866702
0.872638
0.87378
0.869981
0.857947
)
;

boundaryField
{
    sides
    {
        type            calculated;
        value           nonuniform List<scalar> 2(0.857947 0.81204);
    }
    empty
    {
        type            empty;
    }
}


// ************************************************************************* //
