/*--------------------------------*- C++ -*----------------------------------*\
| =========                 |                                                 |
| \\      /  F ield         | OpenFOAM: The Open Source CFD Toolbox           |
|  \\    /   O peration     | Version:  2412                                  |
|   \\  /    A nd           | Website:  www.openfoam.com                      |
|    \\/     M anipulation  |                                                 |
\*---------------------------------------------------------------------------*/
FoamFile
{
    version     2.0;
    format      ascii;
    arch        "LSB;label=32;scalar=64";
    class       volScalarField;
    location    "0.0175973";
    object      TTR;
}
// * * * * * * * * * * * * * * * * * * * * * * * * * * * * * * * * * * * * * //

dimensions      [0 0 0 1 0 0 0];

internalField   nonuniform List<scalar> 
100
(
273.639
273.765
273.145
273.546
274.032
274.83
275.762
276.403
276.561
276.127
275.117
273.784
272.411
271.159
269.977
268.894
267.647
266.711
265.145
264.754
262.355
263.195
259.269
261.772
256.397
259.757
254.314
257.123
252.556
254.451
250.927
251.617
249.192
249.155
247.292
246.547
245.202
244.422
243.219
242.003
240.718
239.892
239.146
237.908
236.197
235.739
235.257
233.353
232.393
233.245
232.95
232.682
231.396
229.215
231.129
239.02
239.729
226.044
217.853
232.015
254.057
246.372
215.162
206.541
236.102
267.726
251.333
209.971
200.518
233.505
270.707
259.091
216.492
200
221.847
261.842
267.584
234.336
203.933
207.37
239.856
268.094
271.253
238.41
280.924
354.25
296.331
263.749
288.683
339.612
382.877
415.426
415.058
426.946
416.464
428.783
416.059
427.592
415.276
417.015
)
;

boundaryField
{
    sides
    {
        type            zeroGradient;
    }
    empty
    {
        type            empty;
    }
}


// ************************************************************************* //
