/*--------------------------------*- C++ -*----------------------------------*\
| =========                 |                                                 |
| \\      /  F ield         | OpenFOAM: The Open Source CFD Toolbox           |
|  \\    /   O peration     | Version:  2412                                  |
|   \\  /    A nd           | Website:  www.openfoam.com                      |
|    \\/     M anipulation  |                                                 |
\*---------------------------------------------------------------------------*/
FoamFile
{
    version     2.0;
    format      ascii;
    arch        "LSB;label=32;scalar=64";
    class       volVectorField;
    location    "3.92184e-05";
    object      U;
}
// * * * * * * * * * * * * * * * * * * * * * * * * * * * * * * * * * * * * * //

dimensions      [0 1 -1 0 0 0 0];

internalField   nonuniform List<vector> 
1800
(
(2.9 -1.32698e-14 0)
(2.9 1.91979e-14 0)
(2.9 -9.55954e-15 0)
(2.9 1.23929e-14 0)
(2.9 1.46119e-14 0)
(2.9 9.01122e-15 0)
(2.9 -3.12097e-14 0)
(2.9 -1.41463e-15 0)
(2.9 -1.57584e-14 0)
(2.9 6.6657e-15 0)
(2.9 1.05925e-14 0)
(2.9 1.6136e-14 0)
(2.9 2.28153e-15 0)
(2.9 -1.13675e-15 0)
(2.9 -2.64592e-14 0)
(2.9 -1.06625e-14 0)
(2.9 5.11792e-15 0)
(2.9 -1.54753e-14 0)
(2.9 -3.54354e-14 0)
(2.9 -1.13079e-14 0)
(2.9 -1.24177e-14 0)
(2.9 -2.1814e-14 0)
(2.9 1.87226e-14 0)
(2.9 -1.56063e-14 0)
(2.9 1.34933e-14 0)
(2.9 1.63112e-14 0)
(2.9 -1.3425e-14 0)
(2.9 2.63193e-15 0)
(2.9 -5.79475e-15 0)
(2.9 -5.05123e-15 0)
(2.9 -2.40984e-15 0)
(2.9 -4.54742e-15 0)
(2.9 -1.15135e-15 0)
(2.9 -6.97959e-16 0)
(2.9 -1.39554e-15 0)
(2.9 -1.31675e-14 0)
(2.9 -8.82184e-15 0)
(2.9 -1.17791e-15 0)
(2.9 -2.34242e-14 0)
(2.9 5.94038e-16 0)
(2.9 -4.3317e-15 0)
(2.9 -8.10063e-15 0)
(2.9 -1.88602e-15 0)
(2.9 3.2106e-14 0)
(2.9 -1.20617e-14 0)
(2.9 -5.38888e-15 0)
(2.9 -2.82725e-15 0)
(2.9 2.80022e-15 0)
(2.9 -2.61994e-14 0)
(2.9 -2.46847e-14 0)
(2.9 -2.67289e-14 0)
(2.9 -3.19709e-14 0)
(2.9 -6.10132e-15 0)
(2.9 -1.5726e-14 0)
(2.9 -9.13132e-15 0)
(2.9 -6.72705e-15 0)
(2.9 -4.81228e-15 0)
(2.9 -2.87895e-14 0)
(2.9 -1.52722e-14 0)
(2.9 -8.59645e-15 0)
(2.9 -2.64951e-16 0)
(2.9 1.31706e-14 0)
(2.9 -4.62134e-14 0)
(2.9 8.91588e-15 0)
(2.9 3.03582e-14 0)
(2.9 -4.25797e-14 0)
(2.9 -8.75632e-15 0)
(2.9 7.6416e-15 0)
(2.9 2.26891e-14 0)
(2.9 7.98914e-15 0)
(2.9 -1.89501e-15 0)
(2.9 -1.84307e-14 0)
(2.9 7.87748e-15 0)
(2.9 1.27398e-14 0)
(2.9 5.52671e-15 0)
(2.9 1.01936e-14 0)
(2.9 -3.09529e-15 0)
(2.9 -5.23496e-15 0)
(2.9 -6.57784e-15 0)
(2.9 -4.29521e-14 0)
(2.9 -4.87636e-15 0)
(2.9 -1.2147e-14 0)
(2.9 -9.81484e-15 0)
(2.9 -2.5726e-14 0)
(2.9 1.19486e-14 0)
(2.9 -1.82563e-15 0)
(2.9 -8.01485e-15 0)
(2.9 -6.62944e-16 0)
(2.9 -2.24633e-14 0)
(2.9 -2.44026e-14 0)
(2.9 -6.8435e-15 0)
(2.9 -2.04867e-14 0)
(2.9 -1.58732e-14 0)
(2.9 -1.39854e-14 0)
(2.9 -4.57248e-15 0)
(2.9 -2.52215e-14 0)
(2.9 -4.18411e-14 0)
(2.9 6.65127e-15 0)
(2.9 -1.79165e-14 0)
(2.9 4.66619e-15 0)
(2.9 -1.23601e-14 0)
(2.9 -2.38874e-14 0)
(2.9 -1.62681e-14 0)
(2.9 -5.87366e-16 0)
(2.9 -8.2914e-14 0)
(2.9 -2.90913e-14 0)
(2.9 -2.08668e-14 0)
(2.9 -4.60654e-14 0)
(2.9 -7.51654e-14 0)
(2.9 -5.28682e-14 0)
(2.9 -8.37281e-14 0)
(2.9 -2.51552e-14 0)
(2.9 -1.55243e-14 0)
(2.9 -2.54842e-14 0)
(2.9 -4.14211e-14 0)
(2.9 -2.46456e-14 0)
(2.9 -1.5077e-14 0)
(2.9 -7.66736e-14 0)
(2.9 -3.96016e-14 0)
(2.9 -3.58476e-14 0)
(2.9 -2.19597e-14 0)
(2.9 1.35102e-14 0)
(2.9 1.54487e-14 0)
(2.9 -1.84346e-14 0)
(2.9 -1.31737e-14 0)
(2.9 2.25976e-14 0)
(2.9 -1.69678e-14 0)
(2.9 -2.41585e-14 0)
(2.9 6.45323e-16 0)
(2.9 3.31436e-14 0)
(2.9 3.33416e-14 0)
(2.9 2.72968e-14 0)
(2.9 2.92301e-14 0)
(2.9 -3.48034e-15 0)
(2.9 4.12848e-14 0)
(2.9 4.66238e-14 0)
(2.9 1.45804e-14 0)
(2.9 6.33265e-15 0)
(2.9 4.3145e-14 0)
(2.9 4.73584e-15 0)
(2.9 -3.19045e-14 0)
(2.9 4.73147e-16 0)
(2.9 6.41144e-14 0)
(2.9 3.67693e-14 0)
(2.9 8.83284e-18 0)
(2.9 5.01487e-15 0)
(2.9 -1.74117e-14 0)
(2.9 -1.9436e-16 0)
(2.9 2.88513e-14 0)
(2.9 -9.50446e-15 0)
(2.9 -5.22809e-14 0)
(2.9 -5.52049e-14 0)
(2.9 -5.30958e-14 0)
(2.9 -3.30069e-14 0)
(2.9 -1.52216e-15 0)
(2.9 -4.5855e-15 0)
(2.9 -2.4972e-14 0)
(2.9 -3.23697e-14 0)
(2.9 1.26069e-14 0)
(2.9 5.35377e-15 0)
(2.9 -2.94396e-14 0)
(2.9 -2.16994e-14 0)
(2.9 -2.797e-15 0)
(2.9 2.75856e-15 0)
(2.9 1.36943e-14 0)
(2.9 -2.84234e-14 0)
(2.9 -3.68437e-14 0)
(2.9 -3.02574e-14 0)
(2.9 9.39404e-15 0)
(2.9 -7.71677e-15 0)
(2.9 -3.38047e-15 0)
(2.9 8.60772e-15 0)
(2.9 -1.44999e-14 0)
(2.9 -2.33772e-15 0)
(2.9 -3.20127e-15 0)
(2.9 9.74443e-15 0)
(2.9 -3.18795e-14 0)
(2.9 -6.56974e-14 0)
(2.9 -1.84765e-14 0)
(2.9 3.5665e-15 0)
(2.9 4.55136e-14 0)
(2.9 -1.86557e-14 0)
(2.9 -3.31262e-14 0)
(2.9 -1.74321e-14 0)
(2.9 -2.44817e-14 0)
(2.9 2.23376e-14 0)
(2.9 -3.30252e-14 0)
(2.9 -2.08079e-14 0)
(2.9 -1.15146e-14 0)
(2.9 -4.05146e-15 0)
(2.9 8.05757e-15 0)
(2.9 9.45881e-16 0)
(2.9 -3.63237e-16 0)
(2.9 -1.41826e-14 0)
(2.9 -6.61786e-15 0)
(2.9 1.26086e-14 0)
(2.9 1.62102e-14 0)
(2.9 4.09909e-15 0)
(2.9 1.94809e-15 0)
(2.9 4.46644e-15 0)
(2.9 -1.08516e-14 0)
(2.9 4.2555e-15 0)
(2.9 3.51475e-14 0)
(2.9 2.5947e-14 0)
(2.9 -1.10564e-14 0)
(2.9 2.01514e-14 0)
(2.9 4.79976e-15 0)
(2.9 -1.46665e-16 0)
(2.9 2.10794e-14 0)
(2.9 -1.91307e-15 0)
(2.9 -1.89345e-14 0)
(2.9 -2.31291e-14 0)
(2.9 -1.83323e-14 0)
(2.9 -4.33888e-14 0)
(2.9 -2.30417e-14 0)
(2.9 1.05862e-15 0)
(2.9 -2.61126e-16 0)
(2.9 -1.73064e-15 0)
(2.9 -1.34021e-14 0)
(2.9 4.30342e-16 0)
(2.9 -2.37369e-14 0)
(2.9 -5.92241e-15 0)
(2.9 -1.44911e-14 0)
(2.9 6.37615e-15 0)
(2.9 5.80607e-14 0)
(2.9 2.37678e-14 0)
(2.9 -2.51e-14 0)
(2.9 -2.30366e-14 0)
(2.9 1.25012e-14 0)
(2.9 4.96852e-15 0)
(2.9 6.28927e-15 0)
(2.9 -4.3773e-15 0)
(2.9 -2.08497e-14 0)
(2.9 -2.69137e-14 0)
(2.9 -1.64806e-14 0)
(2.9 -7.39637e-15 0)
(2.9 -2.53929e-14 0)
(2.9 1.51335e-14 0)
(2.9 -5.58857e-15 0)
(2.9 3.66461e-14 0)
(2.9 4.52592e-15 0)
(2.9 -6.12591e-14 0)
(2.9 -4.94542e-14 0)
(2.9 -8.35884e-14 0)
(2.9 5.68104e-15 0)
(2.9 -1.99552e-14 0)
(2.9 -2.57414e-15 0)
(2.9 -4.67018e-14 0)
(2.9 -3.77212e-14 0)
(2.9 -2.12913e-14 0)
(2.9 -1.58284e-15 0)
(2.9 -3.4391e-14 0)
(2.9 -2.79908e-14 0)
(2.9 -4.84693e-14 0)
(2.9 -4.3771e-14 0)
(2.9 -7.29524e-15 0)
(2.9 1.93976e-14 0)
(2.9 -4.58731e-15 0)
(2.9 -1.6578e-14 0)
(2.9 -5.11712e-14 0)
(2.9 -7.96792e-15 0)
(2.9 3.05313e-15 0)
(2.9 -1.31264e-14 0)
(2.9 -1.33775e-14 0)
(2.9 -5.68727e-14 0)
(2.9 1.86862e-14 0)
(2.9 2.72702e-14 0)
(2.9 -6.25702e-15 0)
(2.9 -1.81685e-14 0)
(2.9 2.90905e-15 0)
(2.9 -2.66994e-14 0)
(2.9 -2.85361e-14 0)
(2.9 -2.27916e-15 0)
(2.9 -6.14089e-14 0)
(2.9 -4.31402e-16 0)
(2.9 1.22196e-14 0)
(2.9 1.40713e-14 0)
(2.9 1.85476e-14 0)
(2.9 -2.89241e-14 0)
(2.9 -3.29425e-15 0)
(2.9 1.11151e-14 0)
(2.9 1.83329e-15 0)
(2.9 -6.36657e-14 0)
(2.9 1.06071e-14 0)
(2.9 -5.43781e-15 0)
(2.9 5.5913e-15 0)
(2.9 -9.49882e-15 0)
(2.9 -4.79306e-14 0)
(2.9 5.36321e-15 0)
(2.9 1.64535e-14 0)
(2.9 2.72601e-14 0)
(2.9 -3.01775e-14 0)
(2.9 -1.98716e-14 0)
(2.9 -4.29359e-14 0)
(2.9 -6.65288e-14 0)
(2.9 -4.41795e-14 0)
(2.9 -1.64637e-14 0)
(2.9 6.15236e-14 0)
(2.9 2.40569e-14 0)
(2.9 1.56424e-14 0)
(2.9 -1.95023e-15 0)
(2.9 1.32958e-14 0)
(2.9 1.58623e-14 0)
(2.9 -5.06569e-15 0)
(2.9 5.2723e-14 0)
(2.9 -1.07639e-14 0)
(2.9 1.69668e-14 0)
(2.9 -5.52638e-15 0)
(2.9 2.90891e-14 0)
(2.9 3.92869e-14 0)
(2.9 -4.69796e-14 0)
(2.9 -6.58239e-15 0)
(2.9 1.49379e-14 0)
(2.9 -3.746e-14 0)
(2.9 -1.74274e-15 0)
(2.9 -1.80129e-14 0)
(2.9 -3.28596e-15 0)
(2.9 -1.87026e-14 0)
(2.9 -2.19929e-15 0)
(2.9 4.67604e-15 0)
(2.9 -1.98828e-14 0)
(2.9 -2.85517e-14 0)
(2.9 -3.72974e-15 0)
(2.9 1.74283e-14 0)
(2.9 -1.07899e-14 0)
(2.9 -6.67503e-15 0)
(2.9 3.76147e-14 0)
(2.9 -6.01621e-15 0)
(2.9 2.7186e-15 0)
(2.9 2.84245e-14 0)
(2.9 1.98271e-14 0)
(2.9 4.02825e-14 0)
(2.9 2.48164e-14 0)
(2.9 2.22002e-14 0)
(2.9 1.16626e-14 0)
(2.9 -2.23636e-14 0)
(2.9 -1.88782e-14 0)
(2.9 5.93849e-15 0)
(2.9 1.16648e-14 0)
(2.9 -1.20899e-14 0)
(2.9 1.30074e-14 0)
(2.9 -2.99178e-14 0)
(2.9 2.708e-14 0)
(2.9 -7.44825e-15 0)
(2.9 -5.13445e-15 0)
(2.9 9.78582e-15 0)
(2.9 2.60123e-14 0)
(2.9 4.54267e-14 0)
(2.9 2.4803e-14 0)
(2.9 3.75911e-14 0)
(2.9 2.31804e-14 0)
(2.9 4.18634e-14 0)
(2.9 -6.71382e-15 0)
(2.9 4.56058e-15 0)
(2.9 -4.665e-14 0)
(2.9 7.87402e-15 0)
(2.9 -7.29855e-15 0)
(2.9 6.73405e-14 0)
(2.9 -7.27384e-15 0)
(2.9 -5.13205e-14 0)
(2.9 2.73721e-15 0)
(2.9 4.57203e-14 0)
(2.9 7.62854e-14 0)
(2.9 8.13327e-15 0)
(2.9 -1.44795e-14 0)
(2.9 1.34519e-14 0)
(2.9 -4.48792e-15 0)
(2.9 -8.13949e-15 0)
(2.9 1.95867e-14 0)
(2.9 8.53398e-15 0)
(2.9 6.62414e-15 0)
(2.9 5.7641e-15 0)
(2.9 -5.27875e-15 0)
(2.9 -5.76806e-14 0)
(2.9 -5.024e-15 0)
(2.9 -1.80572e-14 0)
(2.9 -1.45509e-15 0)
(2.9 -4.05963e-14 0)
(2.9 2.78693e-14 0)
(2.9 6.32008e-14 0)
(2.9 1.20567e-14 0)
(2.9 -1.87817e-14 0)
(2.9 7.86347e-15 0)
(2.9 -1.56246e-15 0)
(2.9 8.98096e-15 0)
(2.9 -5.47322e-14 0)
(2.9 1.49207e-14 0)
(2.9 2.30339e-14 0)
(2.9 -4.30286e-15 0)
(2.9 -7.84295e-15 0)
(2.9 5.00545e-15 0)
(2.9 3.45703e-14 0)
(2.9 1.36228e-14 0)
(2.9 -1.6624e-14 0)
(2.9 -5.59965e-14 0)
(2.9 -1.31035e-14 0)
(2.9 -4.76166e-15 0)
(2.9 -1.87425e-15 0)
(2.9 1.20472e-15 0)
(2.9 7.32638e-15 0)
(2.9 3.46946e-14 0)
(2.9 -1.30125e-15 0)
(2.9 2.2663e-14 0)
(2.9 2.01079e-14 0)
(2.9 -3.52446e-15 0)
(2.9 4.7129e-15 0)
(2.9 1.23748e-14 0)
(2.9 7.01886e-15 0)
(2.9 -4.22675e-14 0)
(2.9 -2.36958e-14 0)
(2.9 1.7615e-15 0)
(2.9 3.92897e-15 0)
(2.9 -7.49089e-15 0)
(2.9 9.27158e-15 0)
(2.9 5.19806e-15 0)
(2.9 2.81108e-15 0)
(2.9 -2.45511e-14 0)
(2.9 -3.69487e-15 0)
(2.9 -1.70536e-14 0)
(2.9 -2.63415e-14 0)
(2.9 2.80794e-15 0)
(2.9 1.13211e-14 0)
(2.9 -1.83806e-14 0)
(2.9 -1.24559e-14 0)
(2.9 1.52979e-15 0)
(2.9 3.52915e-14 0)
(2.9 5.73956e-14 0)
(2.9 8.72978e-15 0)
(2.9 8.77111e-15 0)
(2.9 8.00512e-15 0)
(2.9 6.78728e-14 0)
(2.9 3.87084e-14 0)
(2.9 8.3562e-15 0)
(2.9 4.68565e-14 0)
(2.9 5.02588e-16 0)
(2.9 -5.32213e-15 0)
(2.9 9.30969e-15 0)
(2.9 -7.40872e-15 0)
(2.9 8.09666e-15 0)
(2.9 1.97524e-14 0)
(2.9 1.20737e-14 0)
(2.9 9.30541e-16 0)
(2.9 1.45472e-14 0)
(2.9 2.79013e-14 0)
(2.9 5.60372e-14 0)
(2.9 -8.30937e-15 0)
(2.9 2.09983e-14 0)
(2.9 1.12119e-14 0)
(2.9 -2.55561e-14 0)
(2.9 1.14159e-15 0)
(2.9 5.56264e-15 0)
(2.9 8.94676e-15 0)
(2.9 2.41603e-14 0)
(2.9 1.77026e-14 0)
(2.9 -1.57748e-14 0)
(2.9 -3.6746e-15 0)
(2.9 7.43513e-15 0)
(2.9 1.28434e-15 0)
(2.9 5.41079e-15 0)
(2.9 -5.72672e-14 0)
(2.9 1.16736e-14 0)
(2.9 1.83307e-14 0)
(2.9 1.98677e-14 0)
(2.9 -4.94227e-15 0)
(2.9 -8.21326e-15 0)
(2.9 -2.73778e-14 0)
(2.9 -6.08926e-15 0)
(2.9 -7.64473e-17 0)
(2.9 -2.67091e-14 0)
(2.9 2.41607e-15 0)
(2.9 1.02938e-14 0)
(2.9 6.51105e-15 0)
(2.9 8.3141e-15 0)
(2.9 2.19719e-14 0)
(2.9 6.95603e-14 0)
(2.9 6.21482e-15 0)
(2.9 3.14328e-15 0)
(2.9 4.80366e-15 0)
(2.9 -3.03306e-14 0)
(2.9 -4.74652e-14 0)
(2.9 4.90961e-15 0)
(2.9 1.02551e-14 0)
(2.9 -4.4014e-14 0)
(2.9 -2.48243e-15 0)
(2.9 3.15062e-14 0)
(2.9 1.89636e-14 0)
(2.9 4.33092e-14 0)
(2.9 2.63979e-14 0)
(2.9 8.12264e-15 0)
(2.9 1.49912e-14 0)
(2.9 2.56161e-14 0)
(2.9 -1.28994e-16 0)
(2.9 3.30163e-14 0)
(2.9 6.2886e-14 0)
(2.9 2.9059e-15 0)
(2.9 -1.08299e-15 0)
(2.9 4.37816e-16 0)
(2.9 5.76647e-15 0)
(2.9 -3.22406e-16 0)
(2.9 -6.37491e-15 0)
(2.9 3.29305e-14 0)
(2.9 2.11909e-14 0)
(2.9 -2.16089e-15 0)
(2.9 2.01276e-15 0)
(2.9 3.74001e-14 0)
(2.9 1.76303e-14 0)
(2.9 -9.83012e-17 0)
(2.9 -5.96008e-15 0)
(2.9 9.40959e-15 0)
(2.9 1.94293e-14 0)
(2.9 2.51549e-14 0)
(2.9 1.44935e-14 0)
(2.9 8.42222e-15 0)
(2.9 3.82748e-14 0)
(2.9 3.54848e-15 0)
(2.9 4.87189e-14 0)
(2.9 4.33893e-14 0)
(2.9 8.08861e-15 0)
(2.9 3.87802e-14 0)
(2.9 -2.74843e-14 0)
(2.9 2.05552e-14 0)
(2.9 1.89962e-14 0)
(2.9 1.1499e-14 0)
(2.9 -2.36648e-14 0)
(2.9 -4.76623e-15 0)
(2.9 -2.56844e-14 0)
(2.9 -3.9975e-14 0)
(2.9 2.47832e-14 0)
(2.9 5.9633e-14 0)
(2.9 1.81874e-14 0)
(2.9 4.45994e-15 0)
(2.9 2.18562e-14 0)
(2.9 1.82925e-14 0)
(2.9 1.40885e-14 0)
(2.9 2.4427e-14 0)
(2.9 1.78813e-14 0)
(2.9 4.9387e-14 0)
(2.9 3.21375e-14 0)
(2.9 -1.94789e-14 0)
(2.9 -6.61936e-16 0)
(2.9 -4.77669e-15 0)
(2.9 -1.71559e-14 0)
(2.9 1.00949e-14 0)
(2.9 6.06815e-15 0)
(2.9 1.71113e-14 0)
(2.9 -1.00053e-14 0)
(2.9 -2.00518e-15 0)
(2.9 4.53869e-14 0)
(2.9 3.54382e-14 0)
(2.9 2.90159e-14 0)
(2.9 2.59499e-14 0)
(2.9 -4.37628e-15 0)
(2.9 -1.66242e-15 0)
(2.9 2.69303e-14 0)
(2.9 2.84756e-15 0)
(2.9 -2.76086e-14 0)
(2.9 -4.08568e-15 0)
(2.9 2.3528e-14 0)
(2.9 -9.97181e-15 0)
(2.9 -1.57131e-14 0)
(2.9 2.08861e-14 0)
(2.9 3.4373e-14 0)
(2.9 -2.12682e-14 0)
(2.9 -2.23157e-14 0)
(2.9 1.01787e-14 0)
(2.9 8.27842e-15 0)
(2.9 -1.54638e-14 0)
(2.9 -3.59104e-14 0)
(2.9 -2.19541e-14 0)
(2.9 -7.78267e-15 0)
(2.9 -4.48639e-15 0)
(2.9 -2.09234e-14 0)
(2.9 -4.48235e-16 0)
(2.9 3.69573e-14 0)
(2.9 2.27359e-15 0)
(2.9 4.89361e-14 0)
(2.9 3.69867e-14 0)
(2.9 -6.01968e-15 0)
(2.9 3.2891e-14 0)
(2.9 2.53983e-14 0)
(2.9 9.44804e-15 0)
(2.9 7.00437e-15 0)
(2.9 -3.49377e-14 0)
(2.9 -5.84417e-14 0)
(2.9 -6.54007e-14 0)
(2.9 -1.92699e-14 0)
(2.9 7.83081e-15 0)
(2.9 -5.21051e-15 0)
(2.9 9.49462e-15 0)
(2.9 -6.51137e-15 0)
(2.9 -9.03112e-15 0)
(2.9 -1.17472e-14 0)
(2.9 -4.756e-15 0)
(2.9 -2.44717e-14 0)
(2.9 -1.01827e-14 0)
(2.9 -1.80733e-14 0)
(2.9 4.34759e-14 0)
(2.9 -8.30712e-15 0)
(2.9 -4.48706e-14 0)
(2.9 -2.86396e-15 0)
(2.9 -4.62756e-14 0)
(2.9 -2.12829e-14 0)
(2.9 4.25076e-14 0)
(2.9 6.55372e-14 0)
(2.9 7.69902e-15 0)
(2.9 3.34357e-14 0)
(2.9 -1.5885e-14 0)
(2.9 5.52678e-15 0)
(2.9 -2.21889e-14 0)
(2.9 2.29393e-14 0)
(2.9 5.68799e-16 0)
(2.9 -3.13484e-14 0)
(2.9 -6.67118e-14 0)
(2.9 -2.86608e-15 0)
(2.9 3.44247e-14 0)
(2.9 -1.57778e-14 0)
(2.9 1.00342e-14 0)
(2.9 4.81332e-14 0)
(2.9 1.80458e-14 0)
(2.9 -1.13219e-14 0)
(2.9 2.10962e-14 0)
(2.9 -1.8247e-14 0)
(2.9 -7.36382e-14 0)
(2.9 -3.82767e-14 0)
(2.9 -1.24015e-16 0)
(2.9 2.48406e-14 0)
(2.9 -8.224e-15 0)
(2.9 -4.04063e-14 0)
(2.9 -3.31349e-15 0)
(2.9 -3.24765e-14 0)
(2.9 -6.96485e-14 0)
(2.9 -9.5157e-14 0)
(2.9 -1.40202e-14 0)
(2.9 -1.27951e-14 0)
(2.9 4.72646e-14 0)
(2.9 1.44402e-14 0)
(2.9 -4.88575e-15 0)
(2.9 -4.7871e-14 0)
(2.9 -2.32272e-14 0)
(2.9 7.79131e-15 0)
(2.9 -1.45865e-14 0)
(2.9 -1.83847e-14 0)
(2.9 -4.37502e-14 0)
(2.9 -7.6792e-14 0)
(2.9 -2.85552e-14 0)
(2.9 2.78084e-15 0)
(2.9 4.41221e-14 0)
(2.9 6.29541e-15 0)
(2.9 3.63016e-14 0)
(2.9 9.00678e-15 0)
(2.9 -1.15086e-15 0)
(2.9 1.53984e-14 0)
(2.9 -1.16077e-14 0)
(2.9 -4.15082e-14 0)
(2.9 6.30305e-15 0)
(2.9 4.3748e-14 0)
(2.9 6.5936e-15 0)
(2.9 1.39063e-15 0)
(2.9 3.69129e-14 0)
(2.9 4.12846e-14 0)
(2.9 9.05878e-15 0)
(2.9 8.70296e-15 0)
(2.9 7.08456e-15 0)
(2.9 1.84454e-14 0)
(2.9 -1.07774e-14 0)
(2.9 3.08697e-15 0)
(2.9 -2.92714e-15 0)
(2.9 -4.31704e-14 0)
(2.9 9.94134e-15 0)
(2.9 -2.03869e-14 0)
(2.9 -1.88804e-14 0)
(2.9 -8.55277e-15 0)
(2.9 2.77295e-14 0)
(2.9 3.15255e-14 0)
(2.9 4.73442e-15 0)
(2.9 2.61498e-14 0)
(2.9 3.87799e-14 0)
(2.9 3.95001e-14 0)
(2.9 2.00103e-14 0)
(2.9 8.87424e-15 0)
(2.9 -1.49238e-14 0)
(2.9 6.44352e-15 0)
(2.9 -5.76352e-14 0)
(2.9 -5.67428e-15 0)
(2.9 2.11173e-14 0)
(2.9 1.32798e-14 0)
(2.9 -1.77455e-14 0)
(2.9 1.14607e-14 0)
(2.9 3.33072e-15 0)
(2.9 -1.53257e-15 0)
(2.9 -4.78831e-15 0)
(2.9 -3.35554e-14 0)
(2.9 -3.04657e-14 0)
(2.9 1.24817e-16 0)
(2.9 6.96939e-15 0)
(2.9 -6.91163e-15 0)
(2.9 -2.72519e-14 0)
(2.9 -1.75633e-14 0)
(2.9 -2.22244e-14 0)
(2.9 1.53449e-14 0)
(2.9 -2.84331e-14 0)
(2.9 1.68536e-14 0)
(2.9 -7.36512e-15 0)
(2.9 3.59301e-15 0)
(2.9 1.45436e-14 0)
(2.9 -1.44887e-14 0)
(2.9 -3.44567e-14 0)
(2.9 1.62353e-14 0)
(2.9 1.42785e-14 0)
(2.9 3.99589e-14 0)
(2.9 2.89216e-14 0)
(2.9 -1.21501e-14 0)
(2.9 6.18444e-15 0)
(2.9 1.22294e-14 0)
(2.9 3.04135e-14 0)
(2.9 3.02394e-14 0)
(2.9 2.80635e-14 0)
(2.9 1.93689e-14 0)
(2.9 4.99512e-14 0)
(2.9 4.9804e-15 0)
(2.9 9.24022e-15 0)
(2.9 1.31817e-15 0)
(2.9 -4.78206e-15 0)
(2.9 -1.81976e-14 0)
(2.9 -1.33775e-14 0)
(2.9 -1.31765e-14 0)
(2.9 -7.24967e-15 0)
(2.9 -2.04998e-14 0)
(2.9 -3.6924e-15 0)
(2.9 -6.46774e-14 0)
(2.9 -1.87469e-16 0)
(2.9 9.9113e-16 0)
(2.9 1.46149e-14 0)
(2.9 4.36937e-14 0)
(2.9 -3.18173e-14 0)
(2.9 4.16486e-15 0)
(2.9 4.6684e-15 0)
(2.9 -1.31865e-14 0)
(2.9 5.40164e-15 0)
(2.9 1.61154e-14 0)
(2.9 -1.71539e-14 0)
(2.9 -7.92434e-15 0)
(2.9 1.09101e-14 0)
(2.9 -2.06942e-14 0)
(2.9 -1.66224e-14 0)
(2.9 -4.87981e-15 0)
(2.9 -7.16549e-15 0)
(2.9 5.0372e-15 0)
(2.9 2.58955e-14 0)
(2.9 5.14138e-16 0)
(2.9 -9.58809e-15 0)
(2.9 3.36463e-14 0)
(2.9 -1.24677e-14 0)
(2.9 -6.78584e-16 0)
(2.9 -2.36643e-14 0)
(2.9 -1.41707e-14 0)
(2.9 -2.01606e-14 0)
(2.9 3.31398e-14 0)
(2.9 -1.42317e-14 0)
(2.9 -6.85847e-15 0)
(2.9 1.71009e-16 0)
(2.9 4.6294e-15 0)
(2.9 1.40625e-14 0)
(2.9 6.08341e-14 0)
(2.9 1.91976e-14 0)
(2.9 -3.53879e-15 0)
(2.9 -2.89666e-15 0)
(2.9 -7.84965e-15 0)
(2.9 -2.99052e-14 0)
(2.9 1.61097e-14 0)
(2.9 -3.50467e-15 0)
(2.9 -1.96619e-14 0)
(2.9 5.0115e-15 0)
(2.9 1.42264e-15 0)
(2.9 -3.70233e-14 0)
(2.9 -2.77708e-14 0)
(2.9 -2.28305e-15 0)
(2.9 -4.06695e-14 0)
(2.9 4.17651e-15 0)
(2.9 -7.50729e-14 0)
(2.9 -3.63483e-14 0)
(2.9 -3.40597e-14 0)
(2.9 5.50405e-14 0)
(2.9 -1.34959e-14 0)
(2.9 -2.10821e-14 0)
(2.9 -1.4609e-14 0)
(2.9 -1.37336e-14 0)
(2.9 -2.90092e-15 0)
(2.9 -2.22184e-14 0)
(2.9 -2.14959e-14 0)
(2.9 5.54481e-17 0)
(2.9 2.25361e-14 0)
(2.9 2.41162e-14 0)
(2.9 1.81913e-14 0)
(2.9 -3.7241e-14 0)
(2.9 -1.35821e-14 0)
(2.9 -4.08329e-14 0)
(2.9 4.71259e-15 0)
(2.9 -1.99852e-14 0)
(2.9 4.39746e-14 0)
(2.9 1.34213e-14 0)
(2.9 6.18826e-14 0)
(2.9 9.96818e-14 0)
(2.9 3.44864e-14 0)
(2.9 -5.08705e-14 0)
(2.9 -3.74401e-14 0)
(2.9 7.83523e-15 0)
(2.9 3.07942e-14 0)
(2.9 4.20765e-14 0)
(2.9 3.46049e-14 0)
(2.9 -3.58041e-14 0)
(2.9 2.95809e-14 0)
(2.9 -2.7629e-15 0)
(2.9 9.27658e-17 0)
(2.9 4.78949e-15 0)
(2.9 -1.78214e-14 0)
(2.9 -1.72894e-14 0)
(2.9 -2.34503e-15 0)
(2.9 -3.21831e-14 0)
(2.9 -5.22198e-14 0)
(2.9 -4.49296e-15 0)
(2.9 2.90403e-14 0)
(2.9 3.15655e-14 0)
(2.9 1.29822e-13 0)
(2.9 5.18748e-14 0)
(2.9 6.39082e-14 0)
(2.9 3.3422e-14 0)
(2.9 2.34181e-15 0)
(2.9 -3.83985e-14 0)
(2.9 -2.91472e-14 0)
(2.9 -6.93329e-14 0)
(2.9 -1.69962e-14 0)
(2.9 5.45065e-14 0)
(2.9 -1.53704e-15 0)
(2.9 -2.87387e-14 0)
(2.9 -1.27247e-14 0)
(2.9 -5.0798e-14 0)
(2.9 -6.80743e-14 0)
(2.9 1.37134e-14 0)
(2.9 -2.43233e-14 0)
(2.9 -2.42736e-14 0)
(2.9 -1.73697e-14 0)
(2.9 -1.65059e-15 0)
(2.9 1.0216e-14 0)
(2.9 -3.71387e-15 0)
(2.9 6.89254e-15 0)
(2.9 2.94063e-14 0)
(2.9 1.97739e-14 0)
(2.9 2.22361e-14 0)
(2.9 2.28117e-14 0)
(2.9 2.92142e-15 0)
(2.9 1.50115e-14 0)
(2.9 -1.14901e-15 0)
(2.9 -1.51245e-14 0)
(2.9 -1.27548e-14 0)
(2.9 4.03032e-15 0)
(2.9 -4.56113e-14 0)
(2.9 6.8272e-15 0)
(2.9 -2.19446e-14 0)
(2.9 1.38807e-14 0)
(2.9 -2.65506e-15 0)
(2.9 6.60006e-15 0)
(2.9 4.93305e-14 0)
(2.9 2.51582e-14 0)
(2.9 4.04821e-15 0)
(2.9 -5.6371e-15 0)
(2.9 -1.72717e-14 0)
(2.9 9.60588e-15 0)
(2.9 2.79166e-15 0)
(2.9 -6.78518e-15 0)
(2.9 1.03187e-14 0)
(2.9 2.05794e-14 0)
(2.9 -1.00055e-14 0)
(2.9 2.2597e-14 0)
(2.9 3.60449e-14 0)
(2.9 -2.77731e-15 0)
(2.9 7.14564e-15 0)
(2.9 -2.18177e-15 0)
(2.9 3.42861e-15 0)
(2.9 -1.44991e-14 0)
(2.9 -3.11044e-14 0)
(2.9 1.46581e-15 0)
(2.9 2.06542e-14 0)
(2.9 3.58456e-14 0)
(2.9 1.34001e-14 0)
(2.9 5.50949e-14 0)
(2.9 2.9664e-14 0)
(2.9 3.02766e-15 0)
(2.9 -2.09747e-14 0)
(2.9 -8.20001e-15 0)
(2.9 -3.47145e-14 0)
(2.9 -1.09788e-14 0)
(2.9 1.29605e-14 0)
(2.9 3.15774e-14 0)
(2.9 1.46962e-14 0)
(2.9 3.23483e-14 0)
(2.9 -3.87474e-14 0)
(2.9 -1.50118e-14 0)
(2.9 1.56056e-14 0)
(2.9 1.31176e-14 0)
(2.9 3.70911e-15 0)
(2.9 2.13868e-14 0)
(2.9 -1.04136e-14 0)
(2.9 4.92112e-15 0)
(2.9 6.62253e-15 0)
(2.9 4.51411e-15 0)
(2.9 5.8097e-15 0)
(2.9 2.81475e-14 0)
(2.9 4.08097e-14 0)
(2.9 4.42457e-14 0)
(2.9 1.9228e-14 0)
(2.9 3.82847e-14 0)
(2.9 -3.35117e-14 0)
(2.9 -2.3836e-14 0)
(2.9 -1.17842e-14 0)
(2.9 -1.16306e-14 0)
(2.9 -6.1851e-15 0)
(2.9 -3.15632e-14 0)
(2.9 -2.54142e-14 0)
(2.9 -5.24212e-15 0)
(2.9 -3.30336e-14 0)
(2.9 -4.74006e-14 0)
(2.9 -6.17383e-15 0)
(2.9 -3.32769e-15 0)
(2.9 1.16368e-14 0)
(2.9 -1.49703e-14 0)
(2.9 -5.94395e-14 0)
(2.9 -1.59226e-14 0)
(2.9 -5.61315e-14 0)
(2.9 -3.54921e-14 0)
(2.9 1.72314e-14 0)
(2.9 -1.06303e-14 0)
(2.9 -2.50835e-14 0)
(2.9 2.77761e-14 0)
(2.9 -5.48685e-15 0)
(2.9 -5.16535e-14 0)
(2.9 1.89982e-15 0)
(2.9 -7.16136e-15 0)
(2.9 3.15388e-15 0)
(2.9 -2.79355e-15 0)
(2.9 2.36236e-14 0)
(2.9 -2.80367e-14 0)
(2.9 3.51398e-14 0)
(2.9 -3.04461e-14 0)
(2.9 -2.46692e-14 0)
(2.9 -2.14383e-14 0)
(2.9 6.02517e-14 0)
(2.9 9.85896e-15 0)
(2.9 2.48751e-14 0)
(2.9 8.67878e-15 0)
(2.9 3.0789e-14 0)
(2.9 1.48338e-14 0)
(2.9 -2.12767e-14 0)
(2.9 1.07649e-14 0)
(2.9 2.61004e-14 0)
(2.9 1.96188e-14 0)
(2.9 -1.36841e-14 0)
(2.9 8.84976e-15 0)
(2.9 -1.17776e-14 0)
(2.9 3.7371e-14 0)
(2.9 -1.49581e-14 0)
(2.9 1.81455e-14 0)
(2.9 -5.69168e-15 0)
(2.9 -3.60121e-14 0)
(2.9 2.20787e-15 0)
(2.9 -4.46832e-14 0)
(2.9 -1.13592e-14 0)
(2.9 2.76528e-14 0)
(2.9 -5.71809e-14 0)
(2.9 -1.68235e-14 0)
(2.9 -7.18059e-15 0)
(2.9 1.03659e-14 0)
(2.9 4.58198e-14 0)
(2.9 3.07494e-15 0)
(2.9 -1.85973e-14 0)
(2.9 4.2119e-14 0)
(2.9 4.16803e-14 0)
(2.9 -3.33927e-14 0)
(2.9 -1.79001e-14 0)
(2.9 -3.33928e-14 0)
(2.9 -2.39788e-14 0)
(2.9 -4.74319e-14 0)
(2.9 -3.98239e-14 0)
(2.9 2.75926e-15 0)
(2.9 3.08942e-14 0)
(2.9 3.79121e-14 0)
(2.9 -4.08882e-14 0)
(2.9 1.92633e-14 0)
(2.9 2.67471e-14 0)
(2.9 -1.30741e-14 0)
(2.9 3.95737e-14 0)
(2.9 4.28836e-14 0)
(2.9 6.2068e-14 0)
(2.9 -1.60086e-14 0)
(2.9 -3.25819e-15 0)
(2.9 -9.607e-15 0)
(2.9 -2.85575e-14 0)
(2.9 1.99441e-15 0)
(2.9 -1.94893e-14 0)
(2.9 -1.22999e-15 0)
(2.9 4.74397e-14 0)
(2.9 -9.04356e-15 0)
(2.9 8.12276e-15 0)
(2.9 -7.05145e-15 0)
(2.9 7.22344e-14 0)
(2.9 -1.6914e-14 0)
(2.9 3.25119e-14 0)
(2.9 -3.54089e-16 0)
(2.9 -6.42676e-14 0)
(2.9 -3.26024e-14 0)
(2.9 1.56188e-14 0)
(2.9 -9.42022e-16 0)
(2.9 -3.84339e-14 0)
(2.9 2.46714e-14 0)
(2.9 9.70742e-15 0)
(2.9 -2.77897e-14 0)
(2.9 -7.85144e-15 0)
(2.9 4.87652e-14 0)
(2.9 1.99113e-14 0)
(2.9 2.66745e-15 0)
(2.9 -2.26354e-15 0)
(2.9 1.62444e-14 0)
(2.9 -1.33838e-14 0)
(2.9 3.97028e-14 0)
(2.9 7.38087e-15 0)
(2.9 -1.1266e-14 0)
(2.9 5.98827e-15 0)
(2.9 2.31674e-15 0)
(2.9 -6.43262e-15 0)
(2.9 -7.78103e-15 0)
(2.9 4.61196e-16 0)
(2.9 2.84596e-15 0)
(2.9 1.56382e-14 0)
(2.9 6.95306e-15 0)
(2.9 3.81829e-14 0)
(2.9 -7.13292e-15 0)
(2.9 1.71408e-14 0)
(2.9 1.01865e-14 0)
(2.9 1.31297e-14 0)
(2.9 -1.44881e-14 0)
(2.9 -2.50764e-14 0)
(2.9 -9.08377e-15 0)
(2.9 1.70941e-14 0)
(2.9 5.16044e-15 0)
(2.9 2.48875e-14 0)
(2.9 7.67476e-15 0)
(2.9 3.58464e-16 0)
(2.9 1.03564e-14 0)
(2.9 2.18823e-14 0)
(2.9 1.98006e-14 0)
(2.9 -8.85833e-15 0)
(2.9 1.84182e-14 0)
(2.9 4.45622e-15 0)
(2.9 -2.12429e-15 0)
(2.9 6.34076e-15 0)
(2.9 -1.86635e-15 0)
(2.9 -6.65423e-15 0)
(2.9 -1.34278e-15 0)
(2.9 -3.42734e-14 0)
(2.9 -2.30419e-15 0)
(2.9 1.22085e-14 0)
(2.9 3.83273e-15 0)
(2.9 -1.68814e-14 0)
(2.9 -5.73413e-15 0)
(2.9 -9.36171e-15 0)
(2.9 3.4997e-15 0)
(2.9 -3.53987e-14 0)
(2.9 3.78735e-15 0)
(2.9 -8.79629e-15 0)
(2.9 -1.15192e-18 0)
(2.9 -7.45874e-15 0)
(2.9 -1.13754e-14 0)
(2.9 1.1718e-14 0)
(2.9 3.47209e-14 0)
(2.9 1.91955e-14 0)
(2.9 -1.2576e-14 0)
(2.9 -4.38368e-15 0)
(2.9 1.51308e-14 0)
(2.9 -2.00159e-14 0)
(2.9 1.51688e-14 0)
(2.9 1.47297e-14 0)
(2.9 2.69928e-14 0)
(2.9 2.59959e-14 0)
(2.9 2.56711e-15 0)
(2.9 1.79024e-14 0)
(2.9 1.42831e-14 0)
(2.9 1.70946e-14 0)
(2.9 -1.71132e-14 0)
(2.9 -1.02009e-15 0)
(2.9 -5.99452e-15 0)
(2.9 1.07783e-14 0)
(2.9 8.89803e-15 0)
(2.9 8.01079e-15 0)
(2.9 -9.51761e-15 0)
(2.9 -3.55787e-14 0)
(2.9 -4.53118e-14 0)
(2.9 -2.06357e-14 0)
(2.9 2.30296e-14 0)
(2.9 6.82126e-15 0)
(2.9 -9.43106e-15 0)
(2.9 2.47392e-14 0)
(2.9 1.20553e-14 0)
(2.9 4.2732e-16 0)
(2.9 -1.22637e-14 0)
(2.9 1.6331e-14 0)
(2.9 1.87211e-14 0)
(2.9 3.03521e-14 0)
(2.9 6.70955e-15 0)
(2.9 -5.23178e-15 0)
(2.9 1.57395e-14 0)
(2.9 6.22444e-15 0)
(2.9 -2.02375e-14 0)
(2.9 6.07126e-15 0)
(2.9 3.24803e-15 0)
(2.9 -2.73698e-14 0)
(2.9 7.24221e-15 0)
(2.9 2.3555e-15 0)
(2.9 1.40149e-14 0)
(2.9 1.32126e-14 0)
(2.9 5.79597e-15 0)
(2.9 6.44154e-15 0)
(2.9 2.92255e-15 0)
(2.9 -2.28863e-14 0)
(2.9 -1.52901e-14 0)
(2.9 -1.15825e-14 0)
(2.9 -2.6519e-14 0)
(2.9 -4.64405e-14 0)
(2.9 -3.37066e-15 0)
(2.9 4.61173e-14 0)
(2.9 6.33265e-15 0)
(2.9 2.11048e-14 0)
(2.9 1.41936e-14 0)
(2.9 -8.92094e-15 0)
(2.9 -1.3681e-14 0)
(2.9 -9.5917e-15 0)
(2.9 -1.15099e-14 0)
(2.9 6.70986e-15 0)
(2.9 -3.63888e-14 0)
(2.9 -1.32064e-14 0)
(2.9 3.10207e-14 0)
(2.9 2.6443e-14 0)
(2.9 -3.07174e-14 0)
(2.9 6.54483e-14 0)
(2.9 -3.96379e-14 0)
(2.9 -1.33303e-14 0)
(2.9 1.35891e-14 0)
(2.9 2.50061e-14 0)
(2.9 2.86244e-14 0)
(2.9 -4.16165e-14 0)
(2.9 -2.4733e-14 0)
(2.9 -3.0603e-15 0)
(2.9 -5.30395e-15 0)
(2.9 4.50851e-16 0)
(2.9 -9.74964e-16 0)
(2.9 -2.14845e-14 0)
(2.9 2.30574e-14 0)
(2.9 -2.62365e-14 0)
(2.9 1.07792e-14 0)
(2.9 -3.19411e-14 0)
(2.9 8.928e-15 0)
(2.9 2.53555e-14 0)
(2.9 -2.37844e-15 0)
(2.9 -2.95665e-14 0)
(2.9 -3.20481e-14 0)
(2.9 -3.21824e-14 0)
(2.9 -4.81061e-16 0)
(2.9 7.35157e-14 0)
(2.9 1.80434e-14 0)
(2.9 3.99308e-15 0)
(2.9 1.51113e-14 0)
(2.9 3.73171e-14 0)
(2.9 -2.85883e-14 0)
(2.9 -8.59972e-15 0)
(2.9 -3.0492e-14 0)
(2.9 -3.09407e-14 0)
(2.9 -5.4152e-14 0)
(2.9 1.39722e-14 0)
(2.9 -1.22838e-14 0)
(2.9 4.40971e-14 0)
(2.9 4.08109e-14 0)
(2.9 -2.80535e-14 0)
(2.9 1.35474e-14 0)
(2.9 -5.14358e-14 0)
(2.9 -4.19428e-14 0)
(2.9 2.80147e-14 0)
(2.9 -1.93869e-14 0)
(2.9 -2.59113e-14 0)
(2.9 -1.89683e-14 0)
(2.9 3.74417e-14 0)
(2.9 -2.18652e-14 0)
(2.9 2.89529e-14 0)
(2.9 -1.95302e-14 0)
(2.9 -6.7778e-15 0)
(2.9 -2.06872e-14 0)
(2.9 5.34537e-15 0)
(2.9 6.11697e-15 0)
(2.9 1.201e-15 0)
(2.9 -3.99424e-14 0)
(2.9 9.09886e-15 0)
(2.9 5.14078e-14 0)
(2.9 2.86051e-14 0)
(2.9 6.80972e-15 0)
(2.9 1.1028e-14 0)
(2.9 1.51069e-14 0)
(2.9 -1.25246e-14 0)
(2.9 -2.33736e-15 0)
(2.9 8.1843e-15 0)
(2.9 8.53011e-15 0)
(2.9 2.1058e-14 0)
(2.9 1.593e-14 0)
(2.9 -6.3565e-14 0)
(2.9 -3.44219e-14 0)
(2.9 -5.10621e-15 0)
(2.9 7.17758e-15 0)
(2.9 4.34623e-15 0)
(2.9 -8.40377e-15 0)
(2.9 -2.51673e-14 0)
(2.9 2.23993e-14 0)
(2.9 -1.39059e-14 0)
(2.9 -1.31762e-14 0)
(2.9 8.60225e-15 0)
(2.9 -2.60248e-14 0)
(2.9 -2.09636e-14 0)
(2.9 -4.89818e-15 0)
(2.9 -4.13405e-15 0)
(2.9 4.10122e-15 0)
(2.9 1.61715e-14 0)
(2.9 -1.47337e-14 0)
(2.9 2.63453e-15 0)
(2.9 1.31802e-14 0)
(2.9 -8.6555e-15 0)
(2.9 -1.24223e-14 0)
(2.9 3.33488e-15 0)
(2.9 -3.25918e-14 0)
(2.9 -2.11229e-14 0)
(2.9 -1.17302e-14 0)
(2.9 3.52554e-15 0)
(2.9 -1.56655e-14 0)
(2.9 4.54416e-15 0)
(2.9 -1.85314e-15 0)
(2.9 -2.54676e-14 0)
(2.9 -1.53524e-16 0)
(2.9 8.42414e-15 0)
(2.9 6.56487e-15 0)
(2.9 1.28204e-15 0)
(2.9 1.73258e-14 0)
(2.9 7.99214e-15 0)
(2.9 7.10942e-15 0)
(2.9 1.47503e-14 0)
(2.9 -3.31458e-16 0)
(2.9 1.10749e-14 0)
(2.9 -2.62273e-14 0)
(2.9 3.34762e-15 0)
(2.9 -8.58517e-15 0)
(2.9 3.00241e-14 0)
(2.9 -7.60317e-15 0)
(2.9 -3.55113e-15 0)
(2.9 6.24582e-15 0)
(2.9 1.37095e-14 0)
(2.9 1.89573e-14 0)
(2.9 -2.57004e-15 0)
(2.9 5.75529e-15 0)
(2.9 -3.06471e-14 0)
(2.9 8.69632e-14 0)
(2.9 1.03647e-14 0)
(2.9 5.43051e-14 0)
(2.9 -7.03169e-15 0)
(2.9 1.48275e-14 0)
(2.9 4.89089e-14 0)
(2.9 9.54578e-15 0)
(2.9 2.76036e-14 0)
(2.9 3.33766e-14 0)
(2.9 -3.34846e-15 0)
(2.9 -2.79225e-14 0)
(2.9 3.82027e-14 0)
(2.9 3.34848e-16 0)
(2.9 -2.41196e-14 0)
(2.9 1.94906e-14 0)
(2.9 2.84958e-14 0)
(2.9 -2.14491e-14 0)
(2.9 1.61562e-14 0)
(2.9 -2.96819e-14 0)
(2.9 3.22163e-15 0)
(2.9 4.02688e-14 0)
(2.9 1.36609e-14 0)
(2.9 1.53745e-14 0)
(2.9 -9.83451e-15 0)
(2.9 -2.3342e-14 0)
(2.9 -1.57171e-14 0)
(2.9 -4.82969e-16 0)
(2.9 -6.10137e-14 0)
(2.9 -4.16776e-14 0)
(2.9 -2.90279e-14 0)
(2.9 -2.15981e-14 0)
(2.9 -5.42883e-14 0)
(2.9 -2.32207e-14 0)
(2.9 7.33011e-15 0)
(2.9 2.07037e-14 0)
(2.9 -9.2332e-15 0)
(2.9 1.67784e-14 0)
(2.9 -2.32854e-14 0)
(2.9 -3.8987e-14 0)
(2.9 -1.59831e-14 0)
(2.9 -3.29494e-14 0)
(2.9 -2.96062e-14 0)
(2.9 3.50586e-14 0)
(2.9 -8.92706e-15 0)
(2.9 -2.14165e-15 0)
(2.9 -1.70715e-15 0)
(2.9 -2.79224e-14 0)
(2.9 8.957e-15 0)
(2.9 -5.38522e-15 0)
(2.9 -5.21607e-15 0)
(2.9 -2.7196e-14 0)
(2.9 -4.0584e-15 0)
(2.9 -3.57992e-14 0)
(2.9 -1.51963e-14 0)
(2.9 5.27198e-14 0)
(2.9 2.23877e-14 0)
(2.9 1.20889e-14 0)
(2.9 -4.87825e-14 0)
(2.9 2.5602e-14 0)
(2.9 -2.86347e-14 0)
(2.9 1.9887e-14 0)
(2.9 3.89739e-14 0)
(2.9 1.79735e-14 0)
(2.9 -5.15122e-14 0)
(2.9 -2.41602e-14 0)
(2.9 1.76966e-14 0)
(2.9 1.01874e-14 0)
(2.9 2.05708e-14 0)
(2.9 -6.02237e-15 0)
(2.9 1.80747e-15 0)
(2.9 -1.33837e-14 0)
(2.9 4.25094e-14 0)
(2.9 2.15337e-14 0)
(2.9 1.16761e-14 0)
(2.9 9.47072e-15 0)
(2.9 2.87353e-14 0)
(2.9 2.21401e-14 0)
(2.9 1.11723e-14 0)
(2.9 1.46262e-14 0)
(2.9 1.37216e-14 0)
(2.9 1.96553e-14 0)
(2.9 3.59652e-15 0)
(2.9 -1.1506e-14 0)
(2.9 -5.53806e-14 0)
(2.9 5.83469e-15 0)
(2.9 1.27888e-15 0)
(2.9 5.00313e-15 0)
(2.9 5.52311e-14 0)
(2.9 2.72622e-14 0)
(2.9 -3.47307e-14 0)
(2.9 1.05955e-14 0)
(2.9 4.90391e-14 0)
(2.9 6.2446e-14 0)
(2.9 -9.16747e-16 0)
(2.9 -3.37474e-15 0)
(2.9 5.25206e-14 0)
(2.9 2.97391e-14 0)
(2.9 4.62381e-15 0)
(2.9 -4.45135e-14 0)
(2.9 2.1549e-14 0)
(2.9 2.17177e-14 0)
(2.9 -1.05871e-14 0)
(2.9 -4.9233e-14 0)
(2.9 -6.38561e-15 0)
(2.9 -6.4559e-15 0)
(2.9 2.67522e-14 0)
(2.9 6.84889e-14 0)
(2.9 4.60834e-15 0)
(2.9 2.51468e-14 0)
(2.9 -2.54716e-14 0)
(2.9 -4.40955e-14 0)
(2.9 -1.73803e-14 0)
(2.9 -6.0444e-17 0)
(2.9 7.28827e-14 0)
(2.9 2.60342e-14 0)
(2.9 3.39181e-14 0)
(2.9 2.6256e-15 0)
(2.9 -1.23527e-14 0)
(2.9 -2.3244e-14 0)
(2.9 -1.2696e-14 0)
(2.9 -7.33634e-15 0)
(2.9 1.64102e-14 0)
(2.9 -3.63948e-14 0)
(2.9 2.96976e-14 0)
(2.9 1.53999e-15 0)
(2.9 -1.59106e-14 0)
(2.9 2.71412e-14 0)
(2.9 5.65082e-15 0)
(2.9 -3.24217e-16 0)
(2.9 -1.36031e-14 0)
(2.9 4.22374e-14 0)
(2.9 1.56944e-15 0)
(2.9 4.86592e-15 0)
(2.9 2.34071e-14 0)
(2.9 7.07934e-15 0)
(2.9 9.81369e-15 0)
(2.9 4.12048e-15 0)
(2.9 3.71919e-15 0)
(2.9 4.32102e-14 0)
(2.9 -2.4319e-14 0)
(2.9 -3.54171e-16 0)
(2.9 -6.10618e-15 0)
(2.9 -6.20269e-15 0)
(2.9 -1.45959e-14 0)
(2.9 -7.06415e-15 0)
(2.9 1.251e-14 0)
(2.9 5.89635e-15 0)
(2.9 2.42795e-14 0)
(2.9 3.89823e-14 0)
(2.9 -5.9855e-15 0)
(2.9 1.81689e-14 0)
(2.9 3.91318e-14 0)
(2.9 3.3419e-14 0)
(2.9 1.5068e-14 0)
(2.9 6.52619e-15 0)
(2.9 -7.11733e-16 0)
(2.9 8.11482e-15 0)
(2.9 8.66777e-15 0)
(2.9 5.00116e-15 0)
(2.9 2.72436e-14 0)
(2.9 4.71299e-14 0)
(2.9 -4.2463e-16 0)
(2.9 -1.73756e-14 0)