/*--------------------------------*- C++ -*----------------------------------*\
| =========                 |                                                 |
| \\      /  F ield         | OpenFOAM: The Open Source CFD Toolbox           |
|  \\    /   O peration     | Version:  2412                                  |
|   \\  /    A nd           | Website:  www.openfoam.com                      |
|    \\/     M anipulation  |                                                 |
\*---------------------------------------------------------------------------*/
FoamFile
{
    version     2.0;
    format      ascii;
    arch        "LSB;label=32;scalar=64";
    class       volVectorField;
    location    "0.000125152";
    object      U;
}
// * * * * * * * * * * * * * * * * * * * * * * * * * * * * * * * * * * * * * //

dimensions      [0 1 -1 0 0 0 0];

internalField   nonuniform List<vector> 
1800
(
(2.9 -8.10429e-14 0)
(2.9 -1.64407e-15 0)
(2.9 4.87312e-14 0)
(2.9 -5.68174e-14 0)
(2.9 -2.59166e-14 0)
(2.9 -9.43289e-14 0)
(2.9 -5.83406e-14 0)
(2.9 -4.6723e-14 0)
(2.9 -4.62976e-14 0)
(2.9 -3.86342e-15 0)
(2.9 -1.01799e-14 0)
(2.9 -5.77144e-14 0)
(2.9 -9.90418e-14 0)
(2.9 -7.45049e-14 0)
(2.9 -7.38838e-14 0)
(2.9 -4.20332e-14 0)
(2.9 -3.58077e-15 0)
(2.9 -3.36134e-14 0)
(2.9 -3.50873e-14 0)
(2.9 -4.52076e-14 0)
(2.9 -2.55177e-14 0)
(2.9 -2.02461e-14 0)
(2.9 4.22577e-14 0)
(2.9 1.05856e-14 0)
(2.9 -2.41587e-14 0)
(2.9 -8.16077e-14 0)
(2.9 -5.67275e-14 0)
(2.9 -2.17365e-14 0)
(2.9 2.82901e-14 0)
(2.9 4.37575e-14 0)
(2.9 -4.3284e-14 0)
(2.9 -8.38385e-15 0)
(2.9 -7.05372e-14 0)
(2.9 -5.86297e-14 0)
(2.9 -1.39173e-14 0)
(2.9 5.99773e-15 0)
(2.9 -3.77025e-14 0)
(2.9 4.95254e-15 0)
(2.9 5.81083e-15 0)
(2.9 -1.0666e-14 0)
(2.9 1.46416e-14 0)
(2.9 4.08834e-14 0)
(2.9 5.49038e-15 0)
(2.9 2.21759e-14 0)
(2.9 -2.54395e-14 0)
(2.9 -6.04558e-14 0)
(2.9 -2.02092e-15 0)
(2.9 7.82224e-14 0)
(2.9 5.13365e-14 0)
(2.9 5.04371e-14 0)
(2.9 3.06556e-14 0)
(2.9 -1.31236e-14 0)
(2.9 2.15707e-14 0)
(2.9 -3.96758e-15 0)
(2.9 4.55348e-14 0)
(2.9 3.7186e-14 0)
(2.9 -3.51398e-14 0)
(2.9 -4.23507e-14 0)
(2.9 -7.31528e-14 0)
(2.9 -9.34891e-14 0)
(2.9 -1.66737e-13 0)
(2.9 -6.25141e-14 0)
(2.9 2.36058e-14 0)
(2.9 -5.39185e-14 0)
(2.9 -7.32587e-14 0)
(2.9 -1.74726e-13 0)
(2.9 -1.59771e-13 0)
(2.9 -1.20984e-13 0)
(2.9 -6.31877e-14 0)
(2.9 7.77203e-15 0)
(2.9 -2.07515e-14 0)
(2.9 -1.26493e-13 0)
(2.9 -2.11228e-13 0)
(2.9 -1.84245e-13 0)
(2.9 -5.4037e-14 0)
(2.9 -3.04064e-14 0)
(2.9 1.41474e-14 0)
(2.9 -1.0731e-13 0)
(2.9 -9.6951e-14 0)
(2.9 -1.00129e-13 0)
(2.9 -8.40439e-14 0)
(2.9 6.72307e-15 0)
(2.9 1.30342e-13 0)
(2.9 3.70838e-14 0)
(2.9 -5.8748e-14 0)
(2.9 -1.82782e-13 0)
(2.9 -1.08149e-13 0)
(2.9 -6.91278e-14 0)
(2.9 2.73977e-14 0)
(2.9 -7.10523e-15 0)
(2.9 -1.20671e-13 0)
(2.9 -3.27478e-14 0)
(2.9 -1.57557e-13 0)
(2.9 -1.46644e-13 0)
(2.9 -5.58925e-14 0)
(2.9 -4.46443e-14 0)
(2.9 -5.65148e-14 0)
(2.9 2.17734e-14 0)
(2.9 -2.71214e-14 0)
(2.9 -8.90324e-14 0)
(2.9 6.8227e-16 0)
(2.9 3.70222e-14 0)
(2.9 6.99511e-15 0)
(2.9 1.75388e-14 0)
(2.9 -8.60888e-14 0)
(2.9 -1.45486e-13 0)
(2.9 -1.68932e-14 0)
(2.9 4.84298e-14 0)
(2.9 1.11486e-13 0)
(2.9 5.66443e-14 0)
(2.9 8.54046e-15 0)
(2.9 -8.02455e-14 0)
(2.9 -3.9836e-14 0)
(2.9 -3.78455e-14 0)
(2.9 5.84735e-14 0)
(2.9 5.83437e-14 0)
(2.9 -5.59694e-14 0)
(2.9 -6.86271e-14 0)
(2.9 -1.72498e-13 0)
(2.9 -1.94335e-13 0)
(2.9 -1.04078e-13 0)
(2.9 -9.22203e-14 0)
(2.9 -3.04526e-14 0)
(2.9 -4.11988e-14 0)
(2.9 -3.00213e-14 0)
(2.9 -1.54221e-13 0)
(2.9 -1.47976e-13 0)
(2.9 -6.67265e-14 0)
(2.9 -4.34479e-15 0)
(2.9 -5.15089e-14 0)
(2.9 -1.20465e-13 0)
(2.9 -1.81607e-13 0)
(2.9 -2.13496e-13 0)
(2.9 -1.83855e-13 0)
(2.9 -1.19714e-13 0)
(2.9 1.56048e-14 0)
(2.9 -3.41992e-15 0)
(2.9 -7.80804e-14 0)
(2.9 -2.60302e-14 0)
(2.9 -6.13573e-14 0)
(2.9 -6.7359e-15 0)
(2.9 4.53198e-14 0)
(2.9 1.71185e-13 0)
(2.9 7.78907e-14 0)
(2.9 -1.00713e-13 0)
(2.9 -1.79216e-13 0)
(2.9 -6.68621e-14 0)
(2.9 -7.43624e-14 0)
(2.9 -1.07673e-14 0)
(2.9 -8.98997e-14 0)
(2.9 -1.13736e-13 0)
(2.9 -1.0887e-13 0)
(2.9 -1.54484e-13 0)
(2.9 -1.5614e-13 0)
(2.9 -8.66923e-14 0)
(2.9 -6.50021e-14 0)
(2.9 -1.31561e-14 0)
(2.9 4.16903e-15 0)
(2.9 -1.29503e-13 0)
(2.9 -1.76692e-13 0)
(2.9 -6.35511e-14 0)
(2.9 -1.75573e-14 0)
(2.9 4.86741e-14 0)
(2.9 -2.1562e-14 0)
(2.9 -7.17958e-14 0)
(2.9 -8.21722e-14 0)
(2.9 -5.55892e-14 0)
(2.9 -1.08309e-14 0)
(2.9 5.90666e-14 0)
(2.9 -1.33316e-14 0)
(2.9 -2.70235e-14 0)
(2.9 -6.86645e-14 0)
(2.9 -1.63802e-13 0)
(2.9 -1.39724e-13 0)
(2.9 -3.39824e-14 0)
(2.9 -5.47788e-14 0)
(2.9 -8.07388e-14 0)
(2.9 -6.19549e-14 0)
(2.9 -1.42661e-13 0)
(2.9 -1.56339e-13 0)
(2.9 -3.61113e-14 0)
(2.9 -1.17964e-13 0)
(2.9 -5.61885e-14 0)
(2.9 -9.06524e-14 0)
(2.9 -3.73111e-14 0)
(2.9 -1.07166e-13 0)
(2.9 -1.35019e-13 0)
(2.9 -9.21171e-14 0)
(2.9 -3.62811e-14 0)
(2.9 -1.28896e-13 0)
(2.9 -1.68195e-13 0)
(2.9 -2.23038e-13 0)
(2.9 -1.86902e-13 0)
(2.9 -1.81443e-13 0)
(2.9 -1.88665e-13 0)
(2.9 -9.89007e-14 0)
(2.9 -9.08704e-14 0)
(2.9 -6.44124e-14 0)
(2.9 1.68569e-14 0)
(2.9 -4.91348e-15 0)
(2.9 7.72487e-14 0)
(2.9 9.31099e-14 0)
(2.9 3.36154e-14 0)
(2.9 -2.12623e-15 0)
(2.9 -6.53441e-14 0)
(2.9 -1.52021e-13 0)
(2.9 -6.1203e-14 0)
(2.9 -4.13383e-14 0)
(2.9 -1.6111e-14 0)
(2.9 -6.71365e-14 0)
(2.9 -6.11543e-14 0)
(2.9 -5.3119e-14 0)
(2.9 -1.22809e-13 0)
(2.9 -8.6801e-14 0)
(2.9 -1.06489e-13 0)
(2.9 -1.44009e-14 0)
(2.9 2.61335e-14 0)
(2.9 -2.28431e-14 0)
(2.9 -1.22121e-13 0)
(2.9 -1.73438e-13 0)
(2.9 -7.6167e-14 0)
(2.9 -7.26629e-14 0)
(2.9 -5.78315e-14 0)
(2.9 -5.0218e-14 0)
(2.9 -8.69975e-14 0)
(2.9 -9.00439e-14 0)
(2.9 -3.85872e-14 0)
(2.9 -1.76002e-14 0)
(2.9 -9.25991e-14 0)
(2.9 -1.2048e-13 0)
(2.9 -1.06141e-13 0)
(2.9 -3.80555e-14 0)
(2.9 -1.01811e-13 0)
(2.9 -1.67883e-13 0)
(2.9 -1.46513e-13 0)
(2.9 -1.11585e-13 0)
(2.9 -4.73118e-14 0)
(2.9 -3.84817e-14 0)
(2.9 -5.76458e-14 0)
(2.9 -4.3127e-14 0)
(2.9 -6.1367e-14 0)
(2.9 -1.88469e-13 0)
(2.9 -9.74224e-14 0)
(2.9 -1.02363e-13 0)
(2.9 -6.65952e-14 0)
(2.9 -8.06193e-14 0)
(2.9 -5.61039e-14 0)
(2.9 -7.05285e-14 0)
(2.9 -3.60398e-14 0)
(2.9 -1.43565e-13 0)
(2.9 -1.8448e-13 0)
(2.9 -2.23098e-13 0)
(2.9 -1.36716e-13 0)
(2.9 -7.54232e-14 0)
(2.9 -1.36487e-13 0)
(2.9 -2.40296e-13 0)
(2.9 -1.50181e-13 0)
(2.9 -3.097e-14 0)
(2.9 3.59299e-14 0)
(2.9 2.3056e-14 0)
(2.9 5.44649e-14 0)
(2.9 4.29104e-14 0)
(2.9 -8.95508e-14 0)
(2.9 -7.60544e-14 0)
(2.9 -5.33695e-14 0)
(2.9 -1.07335e-13 0)
(2.9 -4.72209e-14 0)
(2.9 -6.61505e-14 0)
(2.9 -1.14028e-14 0)
(2.9 -2.43956e-15 0)
(2.9 4.65997e-15 0)
(2.9 -9.26174e-15 0)
(2.9 -3.47873e-14 0)
(2.9 7.28983e-15 0)
(2.9 -8.29962e-14 0)
(2.9 -6.00484e-14 0)
(2.9 -4.67142e-14 0)
(2.9 -7.82855e-14 0)
(2.9 -1.10121e-13 0)
(2.9 -1.37647e-13 0)
(2.9 -6.8616e-14 0)
(2.9 -1.12911e-13 0)
(2.9 -1.51578e-13 0)
(2.9 -9.65931e-14 0)
(2.9 -8.9032e-14 0)
(2.9 -9.43008e-14 0)
(2.9 -2.08658e-14 0)
(2.9 -2.42853e-15 0)
(2.9 -1.37097e-13 0)
(2.9 -1.26883e-13 0)
(2.9 -5.73563e-14 0)
(2.9 -5.39429e-14 0)
(2.9 -1.14799e-13 0)
(2.9 -2.27498e-13 0)
(2.9 -2.21748e-13 0)
(2.9 -1.60101e-13 0)
(2.9 -3.36709e-14 0)
(2.9 -1.96761e-14 0)
(2.9 -1.81754e-14 0)
(2.9 6.39936e-14 0)
(2.9 -1.09821e-13 0)
(2.9 -1.34688e-13 0)
(2.9 -1.04176e-13 0)
(2.9 -1.19048e-13 0)
(2.9 -2.373e-14 0)
(2.9 -5.85472e-15 0)
(2.9 6.01844e-14 0)
(2.9 4.89475e-14 0)
(2.9 -7.53434e-14 0)
(2.9 -1.51807e-13 0)
(2.9 -2.0178e-13 0)
(2.9 -1.87195e-13 0)
(2.9 -1.43039e-13 0)
(2.9 -8.74275e-14 0)
(2.9 -1.23412e-13 0)
(2.9 -2.11152e-13 0)
(2.9 -1.03957e-13 0)
(2.9 -2.95319e-14 0)
(2.9 4.32311e-14 0)
(2.9 2.11847e-15 0)
(2.9 -6.62358e-14 0)
(2.9 -6.28897e-14 0)
(2.9 -3.5534e-14 0)
(2.9 -2.8571e-14 0)
(2.9 -2.6251e-15 0)
(2.9 -2.44595e-14 0)
(2.9 3.3688e-14 0)
(2.9 -1.5851e-14 0)
(2.9 9.52649e-15 0)
(2.9 3.67203e-14 0)
(2.9 -6.13231e-14 0)
(2.9 -5.26521e-14 0)
(2.9 -1.11519e-14 0)
(2.9 -6.00966e-14 0)
(2.9 -1.22792e-13 0)
(2.9 -1.70112e-13 0)
(2.9 -1.44805e-13 0)
(2.9 -1.31714e-13 0)
(2.9 -1.68883e-13 0)
(2.9 -1.05969e-13 0)
(2.9 -1.24311e-13 0)
(2.9 -5.99556e-14 0)
(2.9 -6.95333e-14 0)
(2.9 -6.97695e-16 0)
(2.9 -2.63001e-14 0)
(2.9 -4.3288e-14 0)
(2.9 -7.9867e-14 0)
(2.9 -7.26466e-14 0)
(2.9 -1.51717e-13 0)
(2.9 -7.59692e-14 0)
(2.9 -4.19113e-15 0)
(2.9 -1.02497e-13 0)
(2.9 -1.33042e-13 0)
(2.9 -2.59036e-13 0)
(2.9 -1.90026e-13 0)
(2.9 -1.51015e-13 0)
(2.9 -7.56541e-14 0)
(2.9 8.35849e-15 0)
(2.9 -4.21455e-14 0)
(2.9 2.29813e-14 0)
(2.9 -3.66648e-14 0)
(2.9 -3.39721e-14 0)
(2.9 -1.15585e-13 0)
(2.9 -5.84507e-14 0)
(2.9 5.29044e-14 0)
(2.9 5.61628e-14 0)
(2.9 1.0528e-13 0)
(2.9 9.52564e-14 0)
(2.9 -4.87038e-14 0)
(2.9 -1.11357e-13 0)
(2.9 -1.49166e-13 0)
(2.9 -1.11597e-13 0)
(2.9 -1.53329e-13 0)
(2.9 -9.81796e-14 0)
(2.9 -7.86122e-14 0)
(2.9 -1.58126e-13 0)
(2.9 -6.34071e-14 0)
(2.9 -3.66619e-14 0)
(2.9 -4.54285e-14 0)
(2.9 -6.01489e-14 0)
(2.9 -1.51463e-13 0)
(2.9 -1.34702e-13 0)
(2.9 -1.05943e-14 0)
(2.9 -2.34873e-14 0)
(2.9 -1.9233e-15 0)
(2.9 3.3848e-14 0)
(2.9 6.27485e-14 0)
(2.9 5.09511e-14 0)
(2.9 5.82086e-14 0)
(2.9 -8.37089e-16 0)
(2.9 -9.55628e-14 0)
(2.9 -3.39563e-14 0)
(2.9 -5.19331e-14 0)
(2.9 -9.46381e-14 0)
(2.9 -1.7966e-13 0)
(2.9 -2.1703e-13 0)
(2.9 -1.75179e-13 0)
(2.9 -1.08259e-13 0)
(2.9 -1.63271e-13 0)
(2.9 -1.10579e-13 0)
(2.9 -1.47609e-13 0)
(2.9 -1.38372e-14 0)
(2.9 2.54927e-14 0)
(2.9 1.11415e-13 0)
(2.9 2.34666e-14 0)
(2.9 -5.62563e-14 0)
(2.9 -1.21961e-13 0)
(2.9 -9.05964e-14 0)
(2.9 -1.11492e-13 0)
(2.9 -4.23179e-14 0)
(2.9 -6.61615e-14 0)
(2.9 -1.45234e-13 0)
(2.9 -1.08544e-13 0)
(2.9 -1.76317e-13 0)
(2.9 -1.69939e-13 0)
(2.9 -1.19454e-13 0)
(2.9 -1.03799e-13 0)
(2.9 -6.21353e-14 0)
(2.9 -9.4581e-14 0)
(2.9 6.26203e-15 0)
(2.9 1.91068e-15 0)
(2.9 3.79411e-14 0)
(2.9 -1.13617e-13 0)
(2.9 -3.38578e-14 0)
(2.9 -1.69618e-14 0)
(2.9 1.21504e-13 0)
(2.9 1.87749e-13 0)
(2.9 1.12797e-13 0)
(2.9 3.94332e-15 0)
(2.9 -8.40056e-14 0)
(2.9 -8.06013e-14 0)
(2.9 -3.81961e-14 0)
(2.9 -1.52796e-13 0)
(2.9 -1.52378e-13 0)
(2.9 -9.79192e-14 0)
(2.9 -2.84192e-14 0)
(2.9 8.11678e-14 0)
(2.9 8.35165e-15 0)
(2.9 -1.09883e-13 0)
(2.9 -1.49197e-13 0)
(2.9 -1.12831e-13 0)
(2.9 -6.30598e-14 0)
(2.9 2.36764e-14 0)
(2.9 -6.59026e-14 0)
(2.9 1.07545e-14 0)
(2.9 1.6814e-15 0)
(2.9 8.18138e-14 0)
(2.9 1.12086e-13 0)
(2.9 1.00476e-13 0)
(2.9 9.28461e-15 0)
(2.9 -1.19691e-14 0)
(2.9 1.75685e-14 0)
(2.9 -2.47524e-14 0)
(2.9 -4.72398e-14 0)
(2.9 -9.04609e-14 0)
(2.9 -1.25372e-13 0)
(2.9 -8.01518e-14 0)
(2.9 2.06767e-15 0)
(2.9 -6.09766e-14 0)
(2.9 -7.72035e-14 0)
(2.9 -6.16055e-14 0)
(2.9 -5.12846e-14 0)
(2.9 1.84981e-14 0)
(2.9 7.89724e-14 0)
(2.9 6.00804e-14 0)
(2.9 -4.16664e-14 0)
(2.9 -6.10619e-14 0)
(2.9 -5.48917e-14 0)
(2.9 -9.41161e-14 0)
(2.9 -7.5144e-14 0)
(2.9 -7.30926e-14 0)
(2.9 -1.0695e-13 0)
(2.9 -1.25571e-13 0)
(2.9 -9.03438e-14 0)
(2.9 -7.35348e-14 0)
(2.9 -6.49691e-14 0)
(2.9 -5.99323e-14 0)
(2.9 -7.89603e-14 0)
(2.9 -5.71835e-14 0)
(2.9 -3.30832e-14 0)
(2.9 2.46662e-16 0)
(2.9 -1.39934e-14 0)
(2.9 -2.19853e-14 0)
(2.9 -1.80285e-14 0)
(2.9 -7.19074e-14 0)
(2.9 3.2519e-14 0)
(2.9 7.20256e-14 0)
(2.9 7.94249e-15 0)
(2.9 5.21828e-14 0)
(2.9 -2.25973e-14 0)
(2.9 -4.01165e-14 0)
(2.9 -8.4801e-14 0)
(2.9 -1.58207e-13 0)
(2.9 -1.32481e-13 0)
(2.9 -7.38511e-14 0)
(2.9 3.40077e-14 0)
(2.9 9.58398e-14 0)
(2.9 4.79663e-14 0)
(2.9 -1.08886e-13 0)
(2.9 -1.43782e-13 0)
(2.9 -4.10286e-14 0)
(2.9 3.1775e-14 0)
(2.9 -3.97837e-14 0)
(2.9 -5.45153e-14 0)
(2.9 -2.9175e-15 0)
(2.9 1.41524e-14 0)
(2.9 1.21071e-13 0)
(2.9 1.08557e-13 0)
(2.9 1.02979e-13 0)
(2.9 5.19677e-14 0)
(2.9 5.17851e-14 0)
(2.9 -1.95276e-14 0)
(2.9 3.61029e-14 0)
(2.9 -2.19705e-14 0)
(2.9 2.52784e-15 0)
(2.9 1.57434e-14 0)
(2.9 6.68478e-14 0)
(2.9 7.35286e-14 0)
(2.9 1.8293e-14 0)
(2.9 1.43092e-14 0)
(2.9 5.46726e-15 0)
(2.9 7.9665e-14 0)
(2.9 7.12976e-14 0)
(2.9 4.18139e-14 0)
(2.9 9.43293e-14 0)
(2.9 8.95445e-14 0)
(2.9 2.12228e-15 0)
(2.9 -2.17466e-14 0)
(2.9 1.96331e-15 0)
(2.9 1.1404e-14 0)
(2.9 1.17879e-14 0)
(2.9 1.26993e-14 0)
(2.9 -6.64679e-14 0)
(2.9 -3.55461e-14 0)
(2.9 3.21674e-14 0)
(2.9 -2.68995e-14 0)
(2.9 -2.27757e-14 0)
(2.9 -5.65926e-14 0)
(2.9 -3.70235e-14 0)
(2.9 -5.26496e-14 0)
(2.9 -1.81253e-14 0)
(2.9 -2.31736e-14 0)
(2.9 6.04391e-14 0)
(2.9 5.84364e-14 0)
(2.9 6.11967e-15 0)
(2.9 -6.53061e-14 0)
(2.9 -1.1746e-13 0)
(2.9 -2.73175e-14 0)
(2.9 7.70577e-14 0)
(2.9 6.8128e-15 0)
(2.9 1.33493e-14 0)
(2.9 -4.84843e-14 0)
(2.9 -9.29534e-14 0)
(2.9 -2.81579e-14 0)
(2.9 4.25614e-15 0)
(2.9 9.68848e-14 0)
(2.9 6.1807e-14 0)
(2.9 1.0918e-13 0)
(2.9 -4.13382e-14 0)
(2.9 -8.6455e-14 0)
(2.9 -6.10193e-14 0)
(2.9 -8.04239e-15 0)
(2.9 -9.75348e-14 0)
(2.9 -5.73511e-14 0)
(2.9 -6.02684e-14 0)
(2.9 2.38705e-14 0)
(2.9 5.08375e-14 0)
(2.9 7.23878e-14 0)
(2.9 6.03261e-14 0)
(2.9 3.52624e-14 0)
(2.9 2.04882e-14 0)
(2.9 -7.35176e-14 0)
(2.9 6.51743e-14 0)
(2.9 -1.88305e-14 0)
(2.9 9.51983e-14 0)
(2.9 1.03686e-13 0)
(2.9 8.80869e-14 0)
(2.9 2.72046e-14 0)
(2.9 -6.00349e-15 0)
(2.9 4.46047e-14 0)
(2.9 1.14694e-13 0)
(2.9 1.26157e-13 0)
(2.9 9.7944e-14 0)
(2.9 4.81095e-14 0)
(2.9 6.55573e-14 0)
(2.9 1.01289e-13 0)
(2.9 1.36339e-14 0)
(2.9 -7.90649e-15 0)
(2.9 8.68495e-14 0)
(2.9 1.06854e-13 0)
(2.9 3.30877e-14 0)
(2.9 8.62904e-14 0)
(2.9 -1.40431e-14 0)
(2.9 -3.01195e-15 0)
(2.9 5.28714e-14 0)
(2.9 2.14175e-15 0)
(2.9 -4.01867e-14 0)
(2.9 -9.01521e-14 0)
(2.9 -1.06609e-14 0)
(2.9 2.59412e-14 0)
(2.9 -6.53242e-14 0)
(2.9 -2.27708e-14 0)
(2.9 1.07012e-13 0)
(2.9 4.59204e-14 0)
(2.9 -2.65132e-14 0)
(2.9 -1.34981e-13 0)
(2.9 -9.96533e-14 0)
(2.9 3.49798e-14 0)
(2.9 1.04657e-13 0)
(2.9 1.95604e-14 0)
(2.9 5.67521e-14 0)
(2.9 4.82549e-14 0)
(2.9 6.606e-14 0)
(2.9 5.0445e-14 0)
(2.9 6.45959e-14 0)
(2.9 2.01562e-13 0)
(2.9 9.52707e-14 0)
(2.9 9.87298e-14 0)
(2.9 1.39667e-13 0)
(2.9 -1.42137e-14 0)
(2.9 -8.78237e-14 0)
(2.9 -1.26021e-14 0)
(2.9 -8.71233e-14 0)
(2.9 -2.23192e-14 0)
(2.9 -4.96236e-14 0)
(2.9 1.96907e-15 0)
(2.9 -5.48409e-14 0)
(2.9 3.66285e-14 0)
(2.9 -3.14279e-14 0)
(2.9 -1.60017e-14 0)
(2.9 1.32955e-14 0)
(2.9 -9.59661e-14 0)
(2.9 1.41085e-14 0)
(2.9 6.88464e-16 0)
(2.9 1.10795e-13 0)
(2.9 1.91912e-13 0)
(2.9 1.2222e-13 0)
(2.9 -6.49169e-15 0)
(2.9 1.67108e-14 0)
(2.9 1.00899e-13 0)
(2.9 8.45503e-14 0)
(2.9 3.31369e-14 0)
(2.9 8.33721e-14 0)
(2.9 2.18823e-14 0)
(2.9 -4.87686e-14 0)
(2.9 -3.55522e-15 0)
(2.9 -2.08051e-14 0)
(2.9 8.40324e-15 0)
(2.9 6.09552e-14 0)
(2.9 5.37755e-14 0)
(2.9 -9.49236e-15 0)
(2.9 5.99926e-14 0)
(2.9 1.13867e-15 0)
(2.9 2.75896e-14 0)
(2.9 -1.3775e-14 0)
(2.9 2.1803e-14 0)
(2.9 -8.60537e-15 0)
(2.9 -1.22278e-13 0)
(2.9 4.72596e-14 0)
(2.9 9.61154e-14 0)
(2.9 -3.88953e-14 0)
(2.9 3.55875e-14 0)
(2.9 4.25906e-14 0)
(2.9 -1.72918e-14 0)
(2.9 -5.7678e-14 0)
(2.9 -1.20028e-13 0)
(2.9 -9.33766e-14 0)
(2.9 3.18054e-14 0)
(2.9 1.14791e-13 0)
(2.9 3.42458e-14 0)
(2.9 7.88887e-14 0)
(2.9 7.24799e-14 0)
(2.9 8.94814e-14 0)
(2.9 1.49455e-14 0)
(2.9 3.51522e-14 0)
(2.9 9.77423e-14 0)
(2.9 1.66883e-14 0)
(2.9 8.65267e-15 0)
(2.9 8.35129e-14 0)
(2.9 3.28596e-14 0)
(2.9 -2.90476e-14 0)
(2.9 -5.72526e-14 0)
(2.9 -4.99504e-14 0)
(2.9 1.32646e-15 0)
(2.9 -1.67807e-14 0)
(2.9 -4.06007e-14 0)
(2.9 -4.50312e-14 0)
(2.9 -5.75826e-14 0)
(2.9 -8.4459e-14 0)
(2.9 2.56088e-14 0)
(2.9 7.32373e-14 0)
(2.9 -2.56801e-14 0)
(2.9 -6.96386e-14 0)
(2.9 -1.27884e-14 0)
(2.9 9.02595e-14 0)
(2.9 1.35837e-13 0)
(2.9 8.97234e-14 0)
(2.9 3.64745e-14 0)
(2.9 9.12116e-14 0)
(2.9 5.72165e-14 0)
(2.9 1.04879e-13 0)
(2.9 1.24034e-14 0)
(2.9 5.68295e-14 0)
(2.9 1.4566e-14 0)
(2.9 -8.29584e-14 0)
(2.9 -6.17986e-14 0)
(2.9 3.91025e-14 0)
(2.9 -1.80958e-14 0)
(2.9 -1.64922e-14 0)
(2.9 -7.18337e-15 0)
(2.9 -3.9019e-14 0)
(2.9 -8.22825e-15 0)
(2.9 1.11338e-14 0)
(2.9 5.1702e-14 0)
(2.9 3.76442e-15 0)
(2.9 1.82326e-14 0)
(2.9 -4.34359e-14 0)
(2.9 -3.52986e-14 0)
(2.9 4.38872e-14 0)
(2.9 1.52935e-13 0)
(2.9 1.70919e-14 0)
(2.9 -3.48323e-15 0)
(2.9 -6.8677e-15 0)
(2.9 6.56905e-14 0)
(2.9 -1.5537e-14 0)
(2.9 -3.88452e-14 0)
(2.9 -5.28512e-14 0)
(2.9 -4.06512e-14 0)
(2.9 1.04177e-14 0)
(2.9 -2.5193e-15 0)
(2.9 7.4309e-14 0)
(2.9 7.69672e-14 0)
(2.9 8.73952e-14 0)
(2.9 8.39012e-14 0)
(2.9 4.80488e-14 0)
(2.9 -3.90791e-14 0)
(2.9 -4.66197e-14 0)
(2.9 -4.5967e-14 0)
(2.9 3.85827e-14 0)
(2.9 1.14058e-13 0)
(2.9 6.1548e-14 0)
(2.9 -1.61723e-14 0)
(2.9 3.0982e-14 0)
(2.9 -1.129e-14 0)
(2.9 -3.4038e-14 0)
(2.9 1.57569e-14 0)
(2.9 -5.24147e-14 0)
(2.9 -1.09072e-13 0)
(2.9 -7.2485e-14 0)
(2.9 7.1189e-14 0)
(2.9 1.03957e-13 0)
(2.9 2.38155e-14 0)
(2.9 8.11536e-15 0)
(2.9 4.94039e-14 0)
(2.9 1.04234e-13 0)
(2.9 7.71753e-14 0)
(2.9 8.93923e-14 0)
(2.9 8.50613e-14 0)
(2.9 1.4057e-13 0)
(2.9 6.9849e-14 0)
(2.9 3.81611e-14 0)
(2.9 -2.48132e-14 0)
(2.9 1.13881e-14 0)
(2.9 -6.93745e-15 0)
(2.9 -5.40231e-14 0)
(2.9 -1.05846e-14 0)
(2.9 1.04657e-14 0)
(2.9 -4.14817e-14 0)
(2.9 -8.22285e-15 0)
(2.9 3.47459e-14 0)
(2.9 2.01127e-14 0)
(2.9 1.25245e-14 0)
(2.9 2.76237e-14 0)
(2.9 6.21512e-14 0)
(2.9 5.59859e-14 0)
(2.9 3.7347e-14 0)
(2.9 -3.45723e-14 0)
(2.9 3.74668e-14 0)
(2.9 7.00677e-14 0)
(2.9 1.36404e-13 0)
(2.9 -4.82905e-14 0)
(2.9 -5.09942e-14 0)
(2.9 6.764e-14 0)
(2.9 1.08091e-13 0)
(2.9 9.34919e-15 0)
(2.9 -7.66999e-15 0)
(2.9 3.28726e-14 0)
(2.9 -5.17855e-14 0)
(2.9 -8.82777e-14 0)
(2.9 5.05893e-14 0)
(2.9 9.6286e-14 0)
(2.9 1.04995e-13 0)
(2.9 1.78088e-13 0)
(2.9 1.58209e-13 0)
(2.9 2.71804e-14 0)
(2.9 -1.28838e-13 0)
(2.9 -3.28783e-14 0)
(2.9 2.87214e-14 0)
(2.9 4.37595e-14 0)
(2.9 1.52896e-13 0)
(2.9 1.20057e-13 0)
(2.9 9.13819e-14 0)
(2.9 1.14574e-13 0)
(2.9 3.48222e-14 0)
(2.9 5.01471e-14 0)
(2.9 2.31487e-14 0)
(2.9 -1.05813e-13 0)
(2.9 -1.5504e-13 0)
(2.9 -6.81072e-14 0)
(2.9 9.26694e-14 0)
(2.9 1.19031e-13 0)
(2.9 8.47257e-14 0)
(2.9 7.06034e-14 0)
(2.9 1.28969e-13 0)
(2.9 4.4967e-14 0)
(2.9 4.09062e-14 0)
(2.9 8.01637e-14 0)
(2.9 3.73135e-14 0)
(2.9 1.5572e-13 0)
(2.9 8.39228e-14 0)
(2.9 2.52056e-14 0)
(2.9 -6.33086e-14 0)
(2.9 -5.73508e-14 0)
(2.9 -6.70149e-14 0)
(2.9 -2.31819e-15 0)
(2.9 5.0381e-14 0)
(2.9 5.19388e-14 0)
(2.9 7.39934e-16 0)
(2.9 6.48951e-14 0)
(2.9 7.02858e-14 0)
(2.9 8.07133e-14 0)
(2.9 5.73881e-14 0)
(2.9 4.47729e-14 0)
(2.9 1.06271e-14 0)
(2.9 1.89517e-14 0)
(2.9 1.36657e-14 0)
(2.9 -1.1218e-14 0)
(2.9 1.0425e-13 0)
(2.9 1.15588e-13 0)
(2.9 1.57491e-13 0)
(2.9 -1.59836e-13 0)
(2.9 -1.29662e-13 0)
(2.9 2.35012e-14 0)
(2.9 5.61156e-14 0)
(2.9 1.67599e-14 0)
(2.9 6.02122e-15 0)
(2.9 4.73884e-14 0)
(2.9 2.0822e-14 0)
(2.9 1.83737e-14 0)
(2.9 1.22102e-13 0)
(2.9 6.58637e-14 0)
(2.9 6.0229e-14 0)
(2.9 1.16852e-13 0)
(2.9 7.79847e-14 0)
(2.9 -2.73738e-14 0)
(2.9 -8.60077e-14 0)
(2.9 4.46067e-14 0)
(2.9 1.29925e-13 0)
(2.9 1.16143e-13 0)
(2.9 1.47357e-13 0)
(2.9 1.52913e-13 0)
(2.9 1.30845e-13 0)
(2.9 8.9388e-14 0)
(2.9 1.17274e-13 0)
(2.9 1.21509e-13 0)
(2.9 1.11152e-14 0)
(2.9 -5.65032e-14 0)
(2.9 -1.3678e-13 0)
(2.9 -1.6533e-14 0)
(2.9 7.55913e-14 0)
(2.9 8.04711e-14 0)
(2.9 3.70595e-14 0)
(2.9 -1.62237e-15 0)
(2.9 7.94697e-14 0)
(2.9 3.20268e-15 0)
(2.9 1.39542e-14 0)
(2.9 -4.11137e-15 0)
(2.9 -3.23462e-14 0)
(2.9 3.68386e-14 0)
(2.9 8.12103e-16 0)
(2.9 2.01556e-14 0)
(2.9 -2.85439e-14 0)
(2.9 -6.53052e-14 0)
(2.9 -1.15863e-13 0)
(2.9 -5.46159e-14 0)
(2.9 -5.37602e-14 0)
(2.9 1.67065e-14 0)
(2.9 -3.77888e-14 0)
(2.9 1.77871e-14 0)
(2.9 -3.96739e-14 0)
(2.9 1.23671e-14 0)
(2.9 -1.14413e-14 0)
(2.9 5.61209e-16 0)
(2.9 7.82663e-15 0)
(2.9 -1.31616e-14 0)
(2.9 -5.47083e-15 0)
(2.9 7.59342e-14 0)
(2.9 8.82032e-14 0)
(2.9 5.11243e-14 0)
(2.9 8.50673e-14 0)
(2.9 -7.58709e-14 0)
(2.9 -7.93592e-14 0)
(2.9 -4.39186e-14 0)
(2.9 2.60118e-14 0)
(2.9 5.88082e-14 0)
(2.9 3.79869e-14 0)
(2.9 1.67821e-16 0)
(2.9 4.39222e-14 0)
(2.9 5.50783e-14 0)
(2.9 1.00935e-13 0)
(2.9 3.62804e-14 0)
(2.9 1.50184e-14 0)
(2.9 1.32629e-14 0)
(2.9 4.60318e-14 0)
(2.9 3.46637e-14 0)
(2.9 2.00775e-14 0)
(2.9 5.9374e-14 0)
(2.9 1.17884e-13 0)
(2.9 1.58582e-13 0)
(2.9 1.36907e-13 0)
(2.9 1.23883e-13 0)
(2.9 7.69096e-14 0)
(2.9 5.6203e-14 0)
(2.9 1.19114e-13 0)
(2.9 6.02026e-14 0)
(2.9 7.72751e-14 0)
(2.9 7.12272e-15 0)
(2.9 2.54662e-14 0)
(2.9 5.32651e-14 0)
(2.9 4.15745e-14 0)
(2.9 2.64461e-14 0)
(2.9 8.83237e-14 0)
(2.9 1.51758e-14 0)
(2.9 1.40688e-14 0)
(2.9 2.80964e-14 0)
(2.9 -3.49056e-14 0)
(2.9 -8.88071e-14 0)
(2.9 -1.77893e-14 0)
(2.9 -8.66811e-14 0)
(2.9 -8.01701e-14 0)
(2.9 -6.58054e-14 0)
(2.9 -1.81e-14 0)
(2.9 -9.21125e-14 0)
(2.9 -3.67519e-14 0)
(2.9 -6.97378e-14 0)
(2.9 -1.36471e-13 0)
(2.9 -6.75749e-14 0)
(2.9 -1.04173e-13 0)
(2.9 -2.00943e-15 0)
(2.9 -7.6167e-14 0)
(2.9 6.24079e-15 0)
(2.9 -3.2142e-14 0)
(2.9 3.20317e-14 0)
(2.9 3.35778e-15 0)
(2.9 -3.79445e-14 0)
(2.9 -1.89448e-15 0)
(2.9 1.27438e-13 0)
(2.9 9.28759e-14 0)
(2.9 4.14588e-15 0)
(2.9 -5.43807e-14 0)
(2.9 -1.812e-14 0)
(2.9 -1.02312e-13 0)
(2.9 -3.68656e-14 0)
(2.9 -3.55749e-14 0)
(2.9 2.42757e-14 0)
(2.9 9.78945e-14 0)
(2.9 3.97358e-14 0)
(2.9 1.86816e-14 0)
(2.9 6.15314e-14 0)
(2.9 6.72333e-14 0)
(2.9 8.54541e-14 0)
(2.9 5.25354e-14 0)
(2.9 -2.95735e-14 0)
(2.9 7.081e-14 0)
(2.9 8.70781e-14 0)
(2.9 4.57752e-14 0)
(2.9 -4.38687e-14 0)
(2.9 6.37245e-14 0)
(2.9 2.13918e-13 0)
(2.9 1.24594e-13 0)
(2.9 6.54397e-14 0)
(2.9 4.43957e-14 0)
(2.9 2.56368e-14 0)
(2.9 7.18621e-14 0)
(2.9 -5.41358e-14 0)
(2.9 2.28693e-14 0)
(2.9 1.03996e-13 0)
(2.9 1.71745e-13 0)
(2.9 9.00376e-14 0)
(2.9 1.92382e-14 0)
(2.9 -2.3837e-14 0)
(2.9 1.35475e-13 0)
(2.9 2.95448e-14 0)
(2.9 -6.21687e-14 0)
(2.9 4.79112e-14 0)
(2.9 -3.62622e-14 0)
(2.9 -7.19518e-14 0)
(2.9 3.93875e-14 0)
(2.9 -1.11002e-13 0)
(2.9 -7.48269e-14 0)
(2.9 -1.24466e-13 0)
(2.9 -3.14531e-14 0)
(2.9 -1.1674e-13 0)
(2.9 1.49359e-14 0)
(2.9 4.84573e-14 0)
(2.9 -6.1578e-14 0)
(2.9 -1.10167e-13 0)
(2.9 -7.30303e-14 0)
(2.9 -5.87195e-14 0)
(2.9 -2.15386e-14 0)
(2.9 -5.33731e-14 0)
(2.9 -8.25846e-14 0)
(2.9 5.41373e-14 0)
(2.9 -4.101e-14 0)
(2.9 -4.82246e-14 0)
(2.9 3.53826e-14 0)
(2.9 9.4046e-14 0)
(2.9 1.3724e-13 0)
(2.9 -5.81241e-15 0)
(2.9 -1.80689e-13 0)
(2.9 -5.63984e-14 0)
(2.9 -5.43966e-14 0)
(2.9 -2.57193e-14 0)
(2.9 -9.14276e-14 0)
(2.9 -1.30899e-14 0)
(2.9 4.0156e-14 0)
(2.9 6.32264e-14 0)
(2.9 7.02002e-14 0)
(2.9 1.49937e-13 0)
(2.9 8.43732e-14 0)
(2.9 4.90118e-14 0)
(2.9 2.80568e-14 0)
(2.9 2.577e-14 0)
(2.9 3.71319e-14 0)
(2.9 3.3468e-14 0)
(2.9 2.92531e-14 0)
(2.9 -3.23991e-14 0)
(2.9 3.62906e-14 0)
(2.9 9.38738e-14 0)
(2.9 5.2597e-14 0)
(2.9 4.71583e-14 0)
(2.9 5.31205e-14 0)
(2.9 6.54797e-14 0)
(2.9 1.07218e-13 0)
(2.9 2.43463e-14 0)
(2.9 1.54383e-15 0)
(2.9 2.92907e-14 0)
(2.9 1.0255e-13 0)
(2.9 5.06808e-14 0)
(2.9 7.56896e-14 0)
(2.9 1.8773e-14 0)
(2.9 9.26859e-14 0)
(2.9 2.95612e-14 0)
(2.9 -1.28526e-15 0)
(2.9 4.80865e-14 0)
(2.9 1.75057e-14 0)
(2.9 -4.36606e-14 0)
(2.9 1.42304e-14 0)
(2.9 -4.41597e-14 0)
(2.9 -3.22348e-14 0)
(2.9 -9.6863e-14 0)
(2.9 -2.12174e-14 0)
(2.9 -2.24428e-14 0)
(2.9 -8.84343e-15 0)
(2.9 2.12943e-14 0)
(2.9 6.25646e-15 0)
(2.9 -3.17551e-14 0)
(2.9 -1.7128e-14 0)
(2.9 8.83654e-15 0)
(2.9 2.2738e-14 0)
(2.9 5.24022e-16 0)
(2.9 2.6482e-14 0)
(2.9 5.8904e-14 0)
(2.9 -4.63785e-15 0)
(2.9 2.86956e-14 0)
(2.9 8.11792e-14 0)
(2.9 8.01805e-14 0)
(2.9 7.95929e-14 0)
(2.9 -2.48647e-14 0)
(2.9 -1.77516e-13 0)
(2.9 -5.4426e-14 0)
(2.9 -2.58797e-14 0)
(2.9 -4.33117e-14 0)
(2.9 -1.33449e-13 0)
(2.9 -5.24e-14 0)
(2.9 -3.79959e-14 0)
(2.9 -1.60288e-14 0)
(2.9 -1.68625e-14 0)
(2.9 5.75919e-14 0)
(2.9 1.01645e-13 0)
(2.9 3.13062e-14 0)
(2.9 -1.38109e-14 0)
(2.9 -1.19933e-14 0)
(2.9 -3.08356e-14 0)
(2.9 -2.61762e-14 0)
(2.9 -3.74116e-14 0)
(2.9 -2.90052e-14 0)
(2.9 7.15934e-15 0)
(2.9 -6.84696e-14 0)
(2.9 2.70875e-14 0)
(2.9 3.59785e-14 0)
(2.9 2.64149e-14 0)
(2.9 5.86408e-14 0)
(2.9 1.06017e-13 0)
(2.9 6.22011e-14 0)
(2.9 1.04821e-14 0)
(2.9 -4.24423e-14 0)
(2.9 -5.72356e-14 0)
(2.9 1.9248e-14 0)
(2.9 7.09206e-14 0)
(2.9 5.50663e-14 0)
(2.9 9.32367e-14 0)
(2.9 2.84733e-14 0)
(2.9 8.01766e-14 0)
(2.9 7.11545e-14 0)
(2.9 7.52957e-14 0)
(2.9 1.9729e-14 0)
(2.9 -4.8586e-14 0)
(2.9 2.01655e-14 0)
(2.9 5.81943e-14 0)
(2.9 9.31825e-15 0)
(2.9 3.27296e-14 0)
(2.9 6.69405e-14 0)
(2.9 -3.42726e-15 0)
(2.9 -3.09724e-14 0)
(2.9 3.36435e-15 0)
(2.9 2.47758e-14 0)
(2.9 2.38667e-14 0)
(2.9 1.03423e-14 0)
(2.9 5.82569e-14 0)
(2.9 5.62415e-14 0)
(2.9 1.38117e-13 0)
(2.9 8.96062e-14 0)
(2.9 9.77491e-14 0)
(2.9 1.06715e-13 0)
(2.9 1.58456e-13 0)
(2.9 9.35449e-14 0)
(2.9 7.04418e-14 0)
(2.9 -8.66197e-14 0)
(2.9 -1.22968e-13 0)
(2.9 -2.99641e-14 0)
(2.9 1.88985e-14 0)
(2.9 -4.98185e-14 0)
(2.9 -1.00127e-13 0)
(2.9 -1.10414e-13 0)
(2.9 -1.043e-13 0)
(2.9 -7.81754e-14 0)
(2.9 -9.16251e-14 0)
(2.9 -2.123e-14 0)
(2.9 -2.01509e-14 0)
(2.9 5.93476e-14 0)
(2.9 2.09402e-14 0)
(2.9 -4.35883e-14 0)
(2.9 -7.36009e-14 0)
(2.9 -4.04424e-14 0)
(2.9 -2.40219e-14 0)
(2.9 -1.83568e-14 0)
(2.9 -3.3293e-14 0)
(2.9 -1.47202e-13 0)
(2.9 -8.85278e-15 0)
(2.9 9.4433e-14 0)
(2.9 4.9741e-15 0)
(2.9 9.86357e-15 0)
(2.9 3.52903e-14 0)
(2.9 1.10969e-14 0)
(2.9 3.80732e-14 0)
(2.9 -4.84625e-14 0)
(2.9 -1.3397e-13 0)
(2.9 -1.42712e-14 0)
(2.9 5.23152e-14 0)
(2.9 9.84807e-14 0)
(2.9 9.53354e-14 0)
(2.9 6.87625e-14 0)
(2.9 8.61529e-14 0)
(2.9 5.37885e-14 0)
(2.9 7.71395e-14 0)
(2.9 5.30891e-14 0)
(2.9 -3.39041e-14 0)
(2.9 9.45885e-14 0)
(2.9 1.80429e-13 0)
(2.9 1.03264e-13 0)
(2.9 2.13605e-14 0)
(2.9 9.39974e-14 0)
(2.9 2.89148e-14 0)
(2.9 9.26758e-15 0)
(2.9 5.80205e-14 0)
(2.9 1.87187e-14 0)
(2.9 9.77477e-14 0)
(2.9 -1.05143e-14 0)
(2.9 1.01576e-13 0)
(2.9 1.23001e-13 0)
(2.9 1.71456e-13 0)
(2.9 1.13411e-13 0)
(2.9 1.51085e-13 0)
(2.9 9.04881e-14 0)
(2.9 1.78006e-13 0)
(2.9 1.71516e-13 0)
(2.9 8.15889e-14 0)
(2.9 -5.23883e-14 0)
(2.9 2.88293e-15 0)
(2.9 4.97304e-14 0)
(2.9 4.83043e-14 0)
(2.9 3.83706e-14 0)
(2.9 2.52754e-14 0)
(2.9 -1.10905e-13 0)
(2.9 -8.9972e-14 0)
(2.9 -8.80567e-14 0)
(2.9 -5.58901e-14 0)
(2.9 -1.01602e-13 0)
(2.9 -2.32288e-14 0)
(2.9 4.18249e-14 0)
(2.9 -1.89386e-15 0)
(2.9 -5.91041e-14 0)
(2.9 -1.24101e-13 0)
(2.9 -2.40025e-14 0)
(2.9 2.31373e-14 0)
(2.9 7.30423e-14 0)
(2.9 -2.3495e-14 0)
(2.9 -1.01657e-13 0)
(2.9 -5.82303e-14 0)
(2.9 5.94362e-14 0)
(2.9 5.53932e-14 0)
(2.9 -1.2878e-14 0)
(2.9 -4.98453e-14 0)
(2.9 -5.89344e-14 0)
(2.9 -4.10947e-14 0)
(2.9 -7.07197e-14 0)
(2.9 -7.97405e-14 0)
(2.9 -6.16506e-15 0)
(2.9 5.0115e-14 0)
(2.9 8.74734e-14 0)
(2.9 -2.50042e-14 0)
(2.9 7.38035e-15 0)
(2.9 5.65936e-14 0)
(2.9 -5.71423e-14 0)
(2.9 5.3981e-14 0)
(2.9 9.6199e-14 0)
(2.9 3.89349e-14 0)
(2.9 1.06236e-13 0)
(2.9 1.48204e-13 0)
(2.9 4.74971e-14 0)
(2.9 -3.16937e-14 0)
(2.9 3.24738e-14 0)
(2.9 -1.64664e-14 0)
(2.9 5.58079e-14 0)
(2.9 3.78013e-14 0)
(2.9 4.65309e-14 0)
(2.9 7.07427e-14 0)
(2.9 2.0131e-14 0)
(2.9 3.03819e-14 0)
(2.9 9.59191e-14 0)
(2.9 9.07275e-14 0)
(2.9 1.3114e-14 0)
(2.9 7.50888e-14 0)
(2.9 -5.26907e-15 0)
(2.9 6.62046e-15 0)
(2.9 1.12584e-13 0)
(2.9 7.76042e-14 0)
(2.9 6.94529e-14 0)
(2.9 1.06784e-13 0)
(2.9 1.13887e-13 0)
(2.9 1.06509e-13 0)
(2.9 8.71372e-14 0)
(2.9 6.98628e-14 0)
(2.9 -3.21076e-14 0)
(2.9 -3.25621e-14 0)
(2.9 -6.29703e-14 0)
(2.9 -4.08846e-14 0)
(2.9 -8.95655e-14 0)
(2.9 2.93329e-15 0)
(2.9 -2.23605e-14 0)
(2.9 -2.38278e-14 0)
(2.9 -1.1082e-13 0)
(2.9 -1.25997e-13 0)
(2.9 5.26565e-15 0)
(2.9 8.90136e-14 0)
(2.9 8.61911e-14 0)
(2.9 -4.00755e-14 0)
(2.9 -4.74083e-14 0)
(2.9 -7.60371e-14 0)
(2.9 6.49922e-14 0)
(2.9 3.21927e-14 0)
(2.9 -3.55242e-14 0)
(2.9 -1.45831e-13 0)
(2.9 -9.22789e-14 0)
(2.9 -9.81206e-14 0)
(2.9 -9.57048e-14 0)
(2.9 -6.92454e-14 0)
(2.9 2.49174e-14 0)
(2.9 2.30746e-14 0)
(2.9 2.75969e-14 0)
(2.9 -6.67005e-14 0)
(2.9 -5.15338e-15 0)
(2.9 4.68035e-14 0)
(2.9 -7.14673e-14 0)
(2.9 2.33903e-14 0)
(2.9 1.31314e-13 0)
(2.9 6.91444e-14 0)
(2.9 6.42744e-14 0)
(2.9 1.19161e-14 0)
(2.9 4.79413e-14 0)
(2.9 -1.74962e-14 0)
(2.9 1.34229e-14 0)
(2.9 -2.7329e-14 0)
(2.9 2.13721e-14 0)
(2.9 2.69466e-14 0)
(2.9 8.89564e-14 0)
(2.9 2.20197e-14 0)
(2.9 4.65686e-14 0)
(2.9 -3.91766e-14 0)
(2.9 -1.44998e-14 0)
(2.9 -1.06423e-14 0)
(2.9 -5.91001e-14 0)
(2.9 -2.61337e-14 0)
(2.9 -7.86654e-14 0)
(2.9 -6.70441e-14 0)
(2.9 -1.30158e-14 0)
(2.9 -7.85997e-14 0)
(2.9 -1.00694e-14 0)
(2.9 1.30321e-13 0)
(2.9 5.75316e-14 0)
(2.9 6.08741e-14 0)
(2.9 2.00815e-14 0)
(2.9 5.84657e-14 0)
(2.9 7.39776e-14 0)
(2.9 6.50755e-14 0)
(2.9 2.39059e-15 0)
(2.9 7.32394e-15 0)
(2.9 -8.31477e-14 0)
(2.9 -4.5171e-14 0)
(2.9 -9.78839e-14 0)
(2.9 -3.60974e-14 0)
(2.9 -1.26596e-13 0)
(2.9 -1.20407e-13 0)
(2.9 -4.95737e-15 0)
(2.9 7.77295e-14 0)
(2.9 3.11302e-14 0)
(2.9 -6.08546e-14 0)
(2.9 -6.90341e-14 0)
(2.9 -2.60448e-14 0)
(2.9 4.27003e-14 0)
(2.9 -2.80293e-14 0)
(2.9 -9.98844e-14 0)
(2.9 -1.99083e-13 0)
(2.9 -8.6479e-14 0)
(2.9 -4.92892e-14 0)
(2.9 -8.72125e-14 0)
(2.9 -5.72841e-14 0)
(2.9 4.70615e-14 0)
(2.9 -5.62388e-14 0)
(2.9 -5.44067e-14 0)
(2.9 -6.43044e-14 0)
(2.9 2.15341e-15 0)
(2.9 1.49621e-14 0)
(2.9 -9.91439e-15 0)
(2.9 1.09942e-14 0)
(2.9 8.29026e-14 0)
(2.9 6.32317e-15 0)
(2.9 -3.62183e-14 0)
(2.9 -8.33589e-14 0)
(2.9 -1.32009e-15 0)
(2.9 1.08082e-13 0)
(2.9 8.77362e-14 0)
(2.9 7.85802e-15 0)
(2.9 -3.85683e-14 0)
(2.9 -1.8248e-14 0)
(2.9 5.31822e-14 0)
(2.9 1.22517e-14 0)
(2.9 6.43589e-14 0)
(2.9 -2.75495e-15 0)
(2.9 7.8614e-15 0)
(2.9 -3.79493e-14 0)
(2.9 -1.23799e-13 0)
(2.9 -7.1367e-14 0)
(2.9 -6.84419e-14 0)
(2.9 -1.02139e-13 0)
(2.9 -1.09566e-13 0)
(2.9 -1.99795e-13 0)
(2.9 -1.12291e-13 0)
(2.9 2.78724e-15 0)
(2.9 4.33876e-14 0)
(2.9 3.46414e-14 0)
(2.9 -1.67625e-14 0)
(2.9 8.5055e-14 0)
(2.9 1.05575e-13 0)
(2.9 2.96343e-14 0)
(2.9 7.08833e-14 0)
(2.9 -4.59031e-14 0)
(2.9 -5.29714e-14 0)
(2.9 -8.7854e-14 0)
(2.9 -6.51854e-14 0)
(2.9 -2.42577e-14 0)
(2.9 -5.25425e-14 0)
(2.9 -1.18533e-13 0)
(2.9 -6.32556e-14 0)
(2.9 -6.03108e-14 0)
(2.9 -4.46022e-14 0)
(2.9 -3.3291e-14 0)
(2.9 -7.33988e-14 0)
(2.9 -5.53909e-14 0)
(2.9 -4.92307e-14 0)
(2.9 -8.53483e-15 0)
(2.9 -4.84273e-14 0)
(2.9 -1.79233e-13 0)
(2.9 -1.68048e-13 0)
(2.9 -1.03854e-13 0)
(2.9 -5.87655e-14 0)
(2.9 -1.93914e-15 0)
(2.9 4.28667e-15 0)
(2.9 -9.63359e-14 0)
(2.9 -7.59113e-14 0)
(2.9 -4.02894e-14 0)
(2.9 -4.09099e-14 0)
(2.9 -8.81796e-14 0)
(2.9 -8.48723e-14 0)
(2.9 -7.94614e-14 0)
(2.9 -4.80267e-14 0)
(2.9 -7.21571e-14 0)
(2.9 -1.11256e-13 0)
(2.9 -6.11757e-14 0)
(2.9 8.14436e-15 0)
(2.9 1.17631e-13 0)
(2.9 2.5681e-14 0)
(2.9 2.27083e-14 0)