/*--------------------------------*- C++ -*----------------------------------*\
| =========                 |                                                 |
| \\      /  F ield         | OpenFOAM: The Open Source CFD Toolbox           |
|  \\    /   O peration     | Version:  2412                                  |
|   \\  /    A nd           | Website:  www.openfoam.com                      |
|    \\/     M anipulation  |                                                 |
\*---------------------------------------------------------------------------*/
FoamFile
{
    version     2.0;
    format      ascii;
    arch        "LSB;label=32;scalar=64";
    class       volScalarField;
    location    "0.037859";
    object      rho;
}
// * * * * * * * * * * * * * * * * * * * * * * * * * * * * * * * * * * * * * //

dimensions      [1 -3 0 0 0 0 0];

internalField   nonuniform List<scalar> 
100
(
0.269517
0.269517
0.269536
0.269611
0.269694
0.26976
0.269748
0.26964
0.269495
0.269212
0.269107
0.268929
0.268925
0.26893
0.268943
0.268978
0.268931
0.268922
0.268764
0.268647
0.26844
0.268349
0.268216
0.268116
0.267985
0.267857
0.267711
0.267586
0.267495
0.267298
0.266766
0.270563
0.411901
0.647963
0.667433
0.656538
0.661873
0.676991
0.685029
0.682157
0.671741
0.673586
0.680725
0.691596
0.708628
0.723634
0.733568
0.741747
0.741635
0.725421
0.717306
0.722708
0.732001
0.748822
0.763155
0.774261
0.784901
0.792516
0.792509
0.792371
0.799262
0.808776
0.819396
0.828191
0.828058
0.826542
0.830456
0.84073
0.854464
0.862486
0.869466
0.866301
0.864569
0.872431
0.888316
0.913452
0.924512
0.929342
0.921928
0.907164
0.90545
0.912686
0.926565
0.944927
0.966412
0.983601
0.994213
0.996007
0.985568
0.958396
0.915802
0.873263
0.854836
0.862292
0.887246
0.910603
0.919747
0.918522
0.908479
0.887557
)
;

boundaryField
{
    sides
    {
        type            calculated;
        value           nonuniform List<scalar> 2(0.887557 0.269517);
    }
    empty
    {
        type            empty;
    }
}


// ************************************************************************* //
