/*--------------------------------*- C++ -*----------------------------------*\
| =========                 |                                                 |
| \\      /  F ield         | OpenFOAM: The Open Source CFD Toolbox           |
|  \\    /   O peration     | Version:  2412                                  |
|   \\  /    A nd           | Website:  www.openfoam.com                      |
|    \\/     M anipulation  |                                                 |
\*---------------------------------------------------------------------------*/
FoamFile
{
    version     2.0;
    format      ascii;
    arch        "LSB;label=32;scalar=64";
    class       volVectorField;
    location    "0.0525297";
    object      U;
}
// * * * * * * * * * * * * * * * * * * * * * * * * * * * * * * * * * * * * * //

dimensions      [0 1 -1 0 0 0 0];

internalField   nonuniform List<vector> 
100
(
(3.77205 0 0)
(-9.00573 0 0)
(-5.29797 0 0)
(-0.316912 0 0)
(7.75205 0 0)
(6.72315 0 0)
(2.89366 0 0)
(-7.90032 0 0)
(-14.0561 0 0)
(-10.3509 0 0)
(-1.69249 0 0)
(4.90384 0 0)
(1.52996 0 0)
(3.05149 0 0)
(4.29961 0 0)
(-49.9372 0 0)
(-192.132 0 0)
(-239.605 0 0)
(-236.911 0 0)
(-229.474 0 0)
(-225.745 0 0)
(-223.772 0 0)
(-222.073 0 0)
(-218.006 0 0)
(-213.045 0 0)
(-210.612 0 0)
(-209.315 0 0)
(-209.466 0 0)
(-213.033 0 0)
(-214.323 0 0)
(-212.808 0 0)
(-209.833 0 0)
(-201.878 0 0)
(-196.327 0 0)
(-194.282 0 0)
(-198.832 0 0)
(-219.837 0 0)
(-228.278 0 0)
(-227.336 0 0)
(-225.465 0 0)
(-221.201 0 0)
(-203.336 0 0)
(-175.272 0 0)
(-162.008 0 0)
(-158.031 0 0)
(-156.692 0 0)
(-155.642 0 0)
(-153.526 0 0)
(-149.592 0 0)
(-145.289 0 0)
(-142.864 0 0)
(-141.875 0 0)
(-141.004 0 0)
(-140.751 0 0)
(-141.275 0 0)
(-141.489 0 0)
(-140.889 0 0)
(-139.677 0 0)
(-136.323 0 0)
(-128.111 0 0)
(-118.895 0 0)
(-113.036 0 0)
(-109.361 0 0)
(-107.241 0 0)
(-106.363 0 0)
(-105.781 0 0)
(-105.401 0 0)
(-104.878 0 0)
(-103.133 0 0)
(-99.3606 0 0)
(-93.7711 0 0)
(-88.8564 0 0)
(-85.1146 0 0)
(-81.9619 0 0)
(-79.5152 0 0)
(-76.3637 0 0)
(-73.4946 0 0)
(-70.0571 0 0)
(-66.9223 0 0)
(-64.0506 0 0)
(-59.9234 0 0)
(-57.4198 0 0)
(-53.8846 0 0)
(-51.583 0 0)
(-48.6083 0 0)
(-45.473 0 0)
(-42.4934 0 0)
(-38.671 0 0)
(-36.129 0 0)
(-32.4407 0 0)
(-29.3683 0 0)
(-25.6579 0 0)
(-22.6712 0 0)
(-19.5136 0 0)
(-16.7057 0 0)
(-14.1338 0 0)
(-11.3526 0 0)
(-8.75462 0 0)
(-5.25046 0 0)
(-1.96011 0 0)
)
;

boundaryField
{
    sides
    {
        type            fixedValue;
        value           uniform (0 0 0);
    }
    empty
    {
        type            empty;
    }
}


// ************************************************************************* //
