/*--------------------------------*- C++ -*----------------------------------*\
| =========                 |                                                 |
| \\      /  F ield         | OpenFOAM: The Open Source CFD Toolbox           |
|  \\    /   O peration     | Version:  2412                                  |
|   \\  /    A nd           | Website:  www.openfoam.com                      |
|    \\/     M anipulation  |                                                 |
\*---------------------------------------------------------------------------*/
FoamFile
{
    version     2.0;
    format      ascii;
    arch        "LSB;label=32;scalar=64";
    class       volVectorField;
    location    "0.000119937";
    object      U;
}
// * * * * * * * * * * * * * * * * * * * * * * * * * * * * * * * * * * * * * //

dimensions      [0 1 -1 0 0 0 0];

internalField   nonuniform List<vector> 
1800
(
(2.9 -7.77866e-14 0)
(2.9 8.52996e-16 0)
(2.9 5.00408e-14 0)
(2.9 -5.55744e-14 0)
(2.9 -2.40978e-14 0)
(2.9 -6.5868e-14 0)
(2.9 -6.27532e-14 0)
(2.9 -5.29867e-14 0)
(2.9 -4.34422e-14 0)
(2.9 -4.89058e-15 0)
(2.9 -8.46137e-15 0)
(2.9 -5.71238e-14 0)
(2.9 -1.01278e-13 0)
(2.9 -8.55809e-14 0)
(2.9 -7.84711e-14 0)
(2.9 -5.41936e-14 0)
(2.9 -5.36249e-15 0)
(2.9 -3.5415e-14 0)
(2.9 -3.90739e-14 0)
(2.9 -4.44252e-14 0)
(2.9 -2.53093e-14 0)
(2.9 -1.47981e-14 0)
(2.9 3.4436e-14 0)
(2.9 9.91726e-15 0)
(2.9 -2.553e-14 0)
(2.9 -7.81192e-14 0)
(2.9 -4.93708e-14 0)
(2.9 -3.48456e-14 0)
(2.9 3.31036e-14 0)
(2.9 5.89573e-14 0)
(2.9 -4.06918e-14 0)
(2.9 -1.0889e-15 0)
(2.9 -6.45804e-14 0)
(2.9 -5.70178e-14 0)
(2.9 -2.1384e-14 0)
(2.9 -1.08725e-15 0)
(2.9 -3.23644e-14 0)
(2.9 5.93482e-15 0)
(2.9 6.42107e-15 0)
(2.9 -2.3854e-14 0)
(2.9 1.12685e-15 0)
(2.9 4.13177e-14 0)
(2.9 5.17052e-15 0)
(2.9 1.34721e-14 0)
(2.9 -2.51732e-14 0)
(2.9 -5.21388e-14 0)
(2.9 -1.15913e-16 0)
(2.9 8.03924e-14 0)
(2.9 5.01264e-14 0)
(2.9 5.10537e-14 0)
(2.9 2.79001e-14 0)
(2.9 -7.97392e-15 0)
(2.9 2.5835e-14 0)
(2.9 -1.26073e-14 0)
(2.9 4.48152e-14 0)
(2.9 3.13419e-14 0)
(2.9 -3.8366e-14 0)
(2.9 -3.15543e-14 0)
(2.9 -7.52158e-14 0)
(2.9 -9.35218e-14 0)
(2.9 -1.62859e-13 0)
(2.9 -5.62056e-14 0)
(2.9 2.76537e-14 0)
(2.9 -3.65132e-14 0)
(2.9 -5.41973e-14 0)
(2.9 -1.69007e-13 0)
(2.9 -1.51454e-13 0)
(2.9 -1.14049e-13 0)
(2.9 -6.81636e-14 0)
(2.9 4.80947e-15 0)
(2.9 -9.94004e-15 0)
(2.9 -1.31655e-13 0)
(2.9 -2.08567e-13 0)
(2.9 -1.68154e-13 0)
(2.9 -5.66543e-14 0)
(2.9 -2.62264e-14 0)
(2.9 -4.21261e-15 0)
(2.9 -8.91541e-14 0)
(2.9 -1.01428e-13 0)
(2.9 -9.90497e-14 0)
(2.9 -8.27655e-14 0)
(2.9 -9.48093e-15 0)
(2.9 1.42023e-13 0)
(2.9 3.65262e-14 0)
(2.9 -8.04099e-14 0)
(2.9 -1.81981e-13 0)
(2.9 -1.15685e-13 0)
(2.9 -8.11362e-14 0)
(2.9 1.97411e-14 0)
(2.9 4.11516e-15 0)
(2.9 -1.14368e-13 0)
(2.9 -3.71031e-14 0)
(2.9 -1.61694e-13 0)
(2.9 -1.34869e-13 0)
(2.9 -5.43534e-14 0)
(2.9 -2.74849e-14 0)
(2.9 -5.18565e-14 0)
(2.9 2.34634e-14 0)
(2.9 -2.41156e-14 0)
(2.9 -9.50741e-14 0)
(2.9 2.05064e-15 0)
(2.9 4.10116e-14 0)
(2.9 1.07634e-14 0)
(2.9 7.83104e-15 0)
(2.9 -8.09807e-14 0)
(2.9 -1.51785e-13 0)
(2.9 -1.00244e-14 0)
(2.9 6.88685e-14 0)
(2.9 1.20596e-13 0)
(2.9 7.4785e-14 0)
(2.9 1.47542e-14 0)
(2.9 -7.99872e-14 0)
(2.9 -4.95195e-14 0)
(2.9 -6.32015e-14 0)
(2.9 6.41799e-14 0)
(2.9 4.65889e-14 0)
(2.9 -6.13982e-14 0)
(2.9 -6.11866e-14 0)
(2.9 -1.82622e-13 0)
(2.9 -1.93722e-13 0)
(2.9 -9.46726e-14 0)
(2.9 -8.43133e-14 0)
(2.9 -2.08487e-14 0)
(2.9 -2.89925e-14 0)
(2.9 -3.70573e-14 0)
(2.9 -1.5655e-13 0)
(2.9 -1.7741e-13 0)
(2.9 -7.42708e-14 0)
(2.9 -4.09588e-15 0)
(2.9 -5.73654e-14 0)
(2.9 -1.31361e-13 0)
(2.9 -1.87519e-13 0)
(2.9 -2.02404e-13 0)
(2.9 -1.77978e-13 0)
(2.9 -1.11312e-13 0)
(2.9 2.27105e-14 0)
(2.9 2.69141e-15 0)
(2.9 -7.10408e-14 0)
(2.9 -1.8218e-14 0)
(2.9 -7.04186e-14 0)
(2.9 -1.99922e-14 0)
(2.9 4.21158e-14 0)
(2.9 1.63163e-13 0)
(2.9 6.20419e-14 0)
(2.9 -1.22293e-13 0)
(2.9 -1.95208e-13 0)
(2.9 -7.86729e-14 0)
(2.9 -5.06201e-14 0)
(2.9 -1.05037e-14 0)
(2.9 -9.23573e-14 0)
(2.9 -1.03643e-13 0)
(2.9 -1.00275e-13 0)
(2.9 -1.54047e-13 0)
(2.9 -1.54543e-13 0)
(2.9 -8.74629e-14 0)
(2.9 -5.73397e-14 0)
(2.9 -1.00541e-14 0)
(2.9 2.71424e-15 0)
(2.9 -1.2208e-13 0)
(2.9 -1.58379e-13 0)
(2.9 -5.96179e-14 0)
(2.9 -1.71577e-14 0)
(2.9 2.89475e-14 0)
(2.9 -2.34999e-14 0)
(2.9 -6.91905e-14 0)
(2.9 -7.14064e-14 0)
(2.9 -5.65638e-14 0)
(2.9 -2.28152e-14 0)
(2.9 6.38086e-14 0)
(2.9 -1.95099e-14 0)
(2.9 -4.08669e-14 0)
(2.9 -7.09741e-14 0)
(2.9 -1.27586e-13 0)
(2.9 -1.13107e-13 0)
(2.9 -2.29797e-14 0)
(2.9 -5.30181e-14 0)
(2.9 -7.18578e-14 0)
(2.9 -6.12628e-14 0)
(2.9 -1.24617e-13 0)
(2.9 -1.52543e-13 0)
(2.9 -2.94197e-14 0)
(2.9 -1.17331e-13 0)
(2.9 -4.97222e-14 0)
(2.9 -9.00655e-14 0)
(2.9 -2.77092e-14 0)
(2.9 -1.17462e-13 0)
(2.9 -1.41911e-13 0)
(2.9 -9.13422e-14 0)
(2.9 -3.34185e-14 0)
(2.9 -1.21234e-13 0)
(2.9 -1.6439e-13 0)
(2.9 -2.14266e-13 0)
(2.9 -1.67521e-13 0)
(2.9 -1.56004e-13 0)
(2.9 -1.73078e-13 0)
(2.9 -7.82834e-14 0)
(2.9 -8.67774e-14 0)
(2.9 -7.04685e-14 0)
(2.9 1.58045e-14 0)
(2.9 -3.19433e-15 0)
(2.9 8.19142e-14 0)
(2.9 9.62125e-14 0)
(2.9 2.93385e-14 0)
(2.9 9.15334e-15 0)
(2.9 -6.10956e-14 0)
(2.9 -1.30887e-13 0)
(2.9 -6.05935e-14 0)
(2.9 -4.20313e-14 0)
(2.9 -1.52827e-14 0)
(2.9 -5.71233e-14 0)
(2.9 -5.16357e-14 0)
(2.9 -5.94886e-14 0)
(2.9 -1.27845e-13 0)
(2.9 -7.75387e-14 0)
(2.9 -9.70542e-14 0)
(2.9 -1.46117e-14 0)
(2.9 3.22198e-14 0)
(2.9 -1.42189e-14 0)
(2.9 -1.26605e-13 0)
(2.9 -1.66908e-13 0)
(2.9 -8.78665e-14 0)
(2.9 -6.56452e-14 0)
(2.9 -4.93902e-14 0)
(2.9 -4.66446e-14 0)
(2.9 -8.06453e-14 0)
(2.9 -7.04066e-14 0)
(2.9 -3.71503e-14 0)
(2.9 -2.86036e-14 0)
(2.9 -1.05389e-13 0)
(2.9 -1.1104e-13 0)
(2.9 -1.01122e-13 0)
(2.9 -2.16059e-14 0)
(2.9 -8.82546e-14 0)
(2.9 -1.44684e-13 0)
(2.9 -1.33989e-13 0)
(2.9 -9.39109e-14 0)
(2.9 -4.06443e-14 0)
(2.9 -3.67422e-14 0)
(2.9 -4.91563e-14 0)
(2.9 -2.87606e-14 0)
(2.9 -5.84169e-14 0)
(2.9 -1.79603e-13 0)
(2.9 -1.00601e-13 0)
(2.9 -1.16437e-13 0)
(2.9 -6.8335e-14 0)
(2.9 -6.90586e-14 0)
(2.9 -5.0557e-14 0)
(2.9 -5.8596e-14 0)
(2.9 -3.37594e-14 0)
(2.9 -1.37749e-13 0)
(2.9 -1.6356e-13 0)
(2.9 -2.04083e-13 0)
(2.9 -1.24187e-13 0)
(2.9 -6.8939e-14 0)
(2.9 -1.2922e-13 0)
(2.9 -2.29295e-13 0)
(2.9 -1.4077e-13 0)
(2.9 -3.3435e-14 0)
(2.9 5.52446e-14 0)
(2.9 3.31998e-14 0)
(2.9 5.61154e-14 0)
(2.9 2.70854e-14 0)
(2.9 -8.81765e-14 0)
(2.9 -7.92076e-14 0)
(2.9 -2.25562e-14 0)
(2.9 -9.74222e-14 0)
(2.9 -3.45206e-14 0)
(2.9 -7.33098e-14 0)
(2.9 -1.33302e-14 0)
(2.9 3.58945e-15 0)
(2.9 -1.72657e-15 0)
(2.9 8.60114e-15 0)
(2.9 -2.40118e-14 0)
(2.9 -1.06509e-14 0)
(2.9 -7.55595e-14 0)
(2.9 -5.69662e-14 0)
(2.9 -2.69266e-14 0)
(2.9 -7.90881e-14 0)
(2.9 -9.74287e-14 0)
(2.9 -1.41828e-13 0)
(2.9 -7.35729e-14 0)
(2.9 -1.21209e-13 0)
(2.9 -1.47775e-13 0)
(2.9 -9.02915e-14 0)
(2.9 -7.93613e-14 0)
(2.9 -1.20494e-13 0)
(2.9 -2.49878e-14 0)
(2.9 1.09462e-14 0)
(2.9 -1.1899e-13 0)
(2.9 -1.20523e-13 0)
(2.9 -6.59273e-14 0)
(2.9 -4.31577e-14 0)
(2.9 -1.11821e-13 0)
(2.9 -2.07168e-13 0)
(2.9 -2.0304e-13 0)
(2.9 -1.42037e-13 0)
(2.9 -2.79577e-14 0)
(2.9 -1.94735e-14 0)
(2.9 -1.89924e-14 0)
(2.9 6.47768e-14 0)
(2.9 -1.10678e-13 0)
(2.9 -1.37236e-13 0)
(2.9 -1.02373e-13 0)
(2.9 -1.17379e-13 0)
(2.9 -2.65151e-14 0)
(2.9 5.66085e-15 0)
(2.9 4.40329e-14 0)
(2.9 3.51139e-14 0)
(2.9 -7.99035e-14 0)
(2.9 -1.5239e-13 0)
(2.9 -1.97718e-13 0)
(2.9 -1.86544e-13 0)
(2.9 -1.42682e-13 0)
(2.9 -9.19596e-14 0)
(2.9 -1.03891e-13 0)
(2.9 -2.29943e-13 0)
(2.9 -9.39317e-14 0)
(2.9 -2.75787e-14 0)
(2.9 3.4985e-14 0)
(2.9 1.36545e-14 0)
(2.9 -5.50877e-14 0)
(2.9 -8.50293e-14 0)
(2.9 -4.29842e-14 0)
(2.9 -3.35711e-14 0)
(2.9 -2.39283e-15 0)
(2.9 -2.20683e-14 0)
(2.9 4.90491e-14 0)
(2.9 -1.14432e-15 0)
(2.9 3.38881e-15 0)
(2.9 2.42288e-14 0)
(2.9 -5.07983e-14 0)
(2.9 -4.37683e-14 0)
(2.9 -4.0042e-15 0)
(2.9 -4.20919e-14 0)
(2.9 -1.21569e-13 0)
(2.9 -1.65854e-13 0)
(2.9 -1.48856e-13 0)
(2.9 -1.24931e-13 0)
(2.9 -1.64318e-13 0)
(2.9 -7.26055e-14 0)
(2.9 -1.00889e-13 0)
(2.9 -6.79385e-14 0)
(2.9 -5.4036e-14 0)
(2.9 3.72825e-16 0)
(2.9 -2.49112e-14 0)
(2.9 -5.37172e-14 0)
(2.9 -7.4128e-14 0)
(2.9 -6.80173e-14 0)
(2.9 -1.3692e-13 0)
(2.9 -7.18342e-14 0)
(2.9 1.60589e-14 0)
(2.9 -8.48053e-14 0)
(2.9 -1.49238e-13 0)
(2.9 -2.36746e-13 0)
(2.9 -1.90316e-13 0)
(2.9 -1.36118e-13 0)
(2.9 -6.74924e-14 0)
(2.9 2.30809e-14 0)
(2.9 -4.19313e-14 0)
(2.9 2.28527e-14 0)
(2.9 -4.56712e-14 0)
(2.9 -2.33858e-14 0)
(2.9 -1.15429e-13 0)
(2.9 -5.44866e-14 0)
(2.9 5.41121e-14 0)
(2.9 5.62016e-14 0)
(2.9 1.04878e-13 0)
(2.9 8.83587e-14 0)
(2.9 -4.76997e-14 0)
(2.9 -1.11824e-13 0)
(2.9 -1.5679e-13 0)
(2.9 -1.06965e-13 0)
(2.9 -1.49001e-13 0)
(2.9 -8.86054e-14 0)
(2.9 -6.17146e-14 0)
(2.9 -1.36475e-13 0)
(2.9 -5.77154e-14 0)
(2.9 -3.40247e-14 0)
(2.9 -3.8147e-14 0)
(2.9 -6.34825e-14 0)
(2.9 -1.50253e-13 0)
(2.9 -1.25666e-13 0)
(2.9 -1.59747e-14 0)
(2.9 -2.60962e-14 0)
(2.9 -4.27587e-15 0)
(2.9 4.14591e-14 0)
(2.9 6.72475e-14 0)
(2.9 4.11085e-14 0)
(2.9 5.15158e-14 0)
(2.9 2.79407e-15 0)
(2.9 -8.26425e-14 0)
(2.9 -2.634e-14 0)
(2.9 -4.18657e-14 0)
(2.9 -7.53464e-14 0)
(2.9 -1.66942e-13 0)
(2.9 -2.18341e-13 0)
(2.9 -1.71061e-13 0)
(2.9 -1.10398e-13 0)
(2.9 -1.55568e-13 0)
(2.9 -1.04022e-13 0)
(2.9 -1.33284e-13 0)
(2.9 -2.81076e-14 0)
(2.9 2.14112e-14 0)
(2.9 1.04408e-13 0)
(2.9 2.66605e-14 0)
(2.9 -6.29247e-14 0)
(2.9 -1.14234e-13 0)
(2.9 -8.96545e-14 0)
(2.9 -1.13169e-13 0)
(2.9 -4.81337e-14 0)
(2.9 -6.33987e-14 0)
(2.9 -1.35165e-13 0)
(2.9 -8.53063e-14 0)
(2.9 -1.59246e-13 0)
(2.9 -1.77481e-13 0)
(2.9 -1.11575e-13 0)
(2.9 -9.72665e-14 0)
(2.9 -5.83109e-14 0)
(2.9 -8.48038e-14 0)
(2.9 -7.79478e-15 0)
(2.9 -5.58107e-16 0)
(2.9 2.70112e-14 0)
(2.9 -1.2052e-13 0)
(2.9 -1.93261e-14 0)
(2.9 -1.38961e-14 0)
(2.9 1.1241e-13 0)
(2.9 2.03497e-13 0)
(2.9 1.06259e-13 0)
(2.9 3.35048e-15 0)
(2.9 -7.26716e-14 0)
(2.9 -6.54981e-14 0)
(2.9 -4.11655e-14 0)
(2.9 -1.35498e-13 0)
(2.9 -1.6037e-13 0)
(2.9 -8.54183e-14 0)
(2.9 -1.66125e-14 0)
(2.9 9.36132e-14 0)
(2.9 1.08051e-14 0)
(2.9 -9.45682e-14 0)
(2.9 -1.39477e-13 0)
(2.9 -1.10437e-13 0)
(2.9 -2.39059e-14 0)
(2.9 2.96166e-14 0)
(2.9 -3.85746e-14 0)
(2.9 2.02442e-14 0)
(2.9 1.41868e-15 0)
(2.9 8.18525e-14 0)
(2.9 1.17195e-13 0)
(2.9 1.13512e-13 0)
(2.9 1.06658e-14 0)
(2.9 -1.04544e-14 0)
(2.9 1.65632e-14 0)
(2.9 -2.1987e-14 0)
(2.9 -6.55877e-14 0)
(2.9 -9.40253e-14 0)
(2.9 -1.18272e-13 0)
(2.9 -9.2542e-14 0)
(2.9 2.88926e-14 0)
(2.9 -8.07579e-14 0)
(2.9 -8.0211e-14 0)
(2.9 -8.29144e-14 0)
(2.9 -7.24055e-15 0)
(2.9 1.95156e-14 0)
(2.9 8.53312e-14 0)
(2.9 6.60419e-14 0)
(2.9 -2.2809e-14 0)
(2.9 -6.35838e-14 0)
(2.9 -5.36201e-14 0)
(2.9 -7.90351e-14 0)
(2.9 -7.5865e-14 0)
(2.9 -6.82378e-14 0)
(2.9 -1.03135e-13 0)
(2.9 -1.09328e-13 0)
(2.9 -9.42578e-14 0)
(2.9 -6.35876e-14 0)
(2.9 -6.19987e-14 0)
(2.9 -5.78768e-14 0)
(2.9 -8.91635e-14 0)
(2.9 -5.48693e-14 0)
(2.9 -3.74117e-14 0)
(2.9 1.68071e-14 0)
(2.9 9.56462e-16 0)
(2.9 -9.8352e-15 0)
(2.9 -2.7403e-14 0)
(2.9 -7.17637e-14 0)
(2.9 2.83514e-14 0)
(2.9 6.97394e-14 0)
(2.9 -6.85547e-17 0)
(2.9 5.09541e-14 0)
(2.9 -2.98814e-14 0)
(2.9 -4.09356e-14 0)
(2.9 -7.74008e-14 0)
(2.9 -1.5634e-13 0)
(2.9 -1.30779e-13 0)
(2.9 -8.79799e-14 0)
(2.9 2.52074e-14 0)
(2.9 7.90586e-14 0)
(2.9 5.00542e-14 0)
(2.9 -1.09084e-13 0)
(2.9 -1.29332e-13 0)
(2.9 -3.19261e-14 0)
(2.9 3.23834e-14 0)
(2.9 -3.13922e-14 0)
(2.9 -5.61653e-14 0)
(2.9 -1.61067e-14 0)
(2.9 1.04451e-14 0)
(2.9 1.27266e-13 0)
(2.9 1.05538e-13 0)
(2.9 1.15968e-13 0)
(2.9 3.96017e-14 0)
(2.9 5.1901e-14 0)
(2.9 -9.07375e-15 0)
(2.9 3.74327e-14 0)
(2.9 -2.14187e-14 0)
(2.9 -7.80885e-15 0)
(2.9 1.35609e-14 0)
(2.9 6.08642e-14 0)
(2.9 7.88133e-14 0)
(2.9 3.71436e-14 0)
(2.9 1.44561e-14 0)
(2.9 1.71808e-14 0)
(2.9 6.70147e-14 0)
(2.9 7.77126e-14 0)
(2.9 4.10802e-14 0)
(2.9 7.72955e-14 0)
(2.9 7.37942e-14 0)
(2.9 -1.20651e-15 0)
(2.9 -2.06993e-14 0)
(2.9 5.50114e-15 0)
(2.9 1.09384e-14 0)
(2.9 1.40423e-14 0)
(2.9 1.53376e-14 0)
(2.9 -8.28928e-14 0)
(2.9 -5.51777e-14 0)
(2.9 2.3388e-14 0)
(2.9 -2.74595e-14 0)
(2.9 -2.21598e-14 0)
(2.9 -4.76839e-14 0)
(2.9 -3.72517e-14 0)
(2.9 -6.30219e-14 0)
(2.9 -1.44832e-14 0)
(2.9 -1.91173e-14 0)
(2.9 5.10343e-14 0)
(2.9 5.67296e-14 0)
(2.9 5.8383e-15 0)
(2.9 -6.22737e-14 0)
(2.9 -1.10508e-13 0)
(2.9 -2.58066e-14 0)
(2.9 8.57413e-14 0)
(2.9 7.65556e-15 0)
(2.9 1.78459e-14 0)
(2.9 -3.9673e-14 0)
(2.9 -9.43038e-14 0)
(2.9 -2.13779e-14 0)
(2.9 -5.35379e-15 0)
(2.9 1.0818e-13 0)
(2.9 5.83938e-14 0)
(2.9 1.11772e-13 0)
(2.9 -4.57428e-14 0)
(2.9 -9.41631e-14 0)
(2.9 -6.0518e-14 0)
(2.9 4.61182e-15 0)
(2.9 -9.54807e-14 0)
(2.9 -5.25781e-14 0)
(2.9 -6.7339e-14 0)
(2.9 -8.70495e-16 0)
(2.9 3.58163e-14 0)
(2.9 7.53988e-14 0)
(2.9 4.87853e-14 0)
(2.9 4.15774e-14 0)
(2.9 7.66958e-15 0)
(2.9 -8.06022e-14 0)
(2.9 7.0303e-14 0)
(2.9 -7.49272e-15 0)
(2.9 9.31417e-14 0)
(2.9 9.68827e-14 0)
(2.9 9.08018e-14 0)
(2.9 1.15476e-14 0)
(2.9 -7.296e-15 0)
(2.9 4.11563e-14 0)
(2.9 1.0053e-13 0)
(2.9 1.22793e-13 0)
(2.9 9.70301e-14 0)
(2.9 3.9336e-14 0)
(2.9 4.81441e-14 0)
(2.9 1.09778e-13 0)
(2.9 7.89023e-15 0)
(2.9 -1.83986e-15 0)
(2.9 8.07396e-14 0)
(2.9 1.08527e-13 0)
(2.9 3.01384e-14 0)
(2.9 9.28446e-14 0)
(2.9 -1.13016e-14 0)
(2.9 -4.19716e-15 0)
(2.9 5.37353e-14 0)
(2.9 4.4218e-15 0)
(2.9 -3.75711e-14 0)
(2.9 -8.60297e-14 0)
(2.9 -2.62655e-14 0)
(2.9 2.83068e-14 0)
(2.9 -6.67659e-14 0)
(2.9 -1.51987e-14 0)
(2.9 9.38276e-14 0)
(2.9 4.60601e-14 0)
(2.9 -2.45434e-14 0)
(2.9 -1.39087e-13 0)
(2.9 -1.06262e-13 0)
(2.9 6.32966e-14 0)
(2.9 1.06617e-13 0)
(2.9 1.46794e-14 0)
(2.9 5.21207e-14 0)
(2.9 5.03601e-14 0)
(2.9 4.95516e-14 0)
(2.9 4.89073e-14 0)
(2.9 5.5456e-14 0)
(2.9 2.00675e-13 0)
(2.9 9.07949e-14 0)
(2.9 9.13941e-14 0)
(2.9 1.16983e-13 0)
(2.9 -2.48887e-14 0)
(2.9 -9.04754e-14 0)
(2.9 -2.17891e-14 0)
(2.9 -8.92407e-14 0)
(2.9 -2.74662e-14 0)
(2.9 -3.49428e-14 0)
(2.9 -1.58695e-15 0)
(2.9 -6.22573e-14 0)
(2.9 3.29628e-14 0)
(2.9 -3.23332e-14 0)
(2.9 -1.26174e-14 0)
(2.9 1.65075e-14 0)
(2.9 -1.14241e-13 0)
(2.9 2.54856e-15 0)
(2.9 4.82742e-16 0)
(2.9 9.80144e-14 0)
(2.9 1.84726e-13 0)
(2.9 1.16186e-13 0)
(2.9 -7.62483e-15 0)
(2.9 2.49112e-14 0)
(2.9 1.03126e-13 0)
(2.9 1.12683e-13 0)
(2.9 2.7069e-14 0)
(2.9 8.04382e-14 0)
(2.9 1.87325e-14 0)
(2.9 -2.54316e-14 0)
(2.9 8.98599e-16 0)
(2.9 4.7693e-15 0)
(2.9 1.6055e-14 0)
(2.9 5.22845e-14 0)
(2.9 3.60128e-14 0)
(2.9 -1.89353e-14 0)
(2.9 4.07124e-14 0)
(2.9 -5.08848e-16 0)
(2.9 3.24673e-14 0)
(2.9 1.16726e-14 0)
(2.9 1.83882e-14 0)
(2.9 -1.53724e-14 0)
(2.9 -1.15443e-13 0)
(2.9 6.43775e-14 0)
(2.9 1.14179e-13 0)
(2.9 -5.22045e-14 0)
(2.9 2.40117e-14 0)
(2.9 4.29122e-14 0)
(2.9 -1.70785e-15 0)
(2.9 -6.08807e-14 0)
(2.9 -1.16688e-13 0)
(2.9 -8.34265e-14 0)
(2.9 2.62887e-14 0)
(2.9 1.01228e-13 0)
(2.9 3.78304e-14 0)
(2.9 8.65189e-14 0)
(2.9 6.54873e-14 0)
(2.9 7.69178e-14 0)
(2.9 2.42371e-14 0)
(2.9 3.76572e-14 0)
(2.9 1.14111e-13 0)
(2.9 2.16677e-14 0)
(2.9 -3.80885e-15 0)
(2.9 9.00551e-14 0)
(2.9 2.76151e-14 0)
(2.9 -2.71512e-14 0)
(2.9 -5.47709e-14 0)
(2.9 -3.88975e-14 0)
(2.9 3.46739e-17 0)
(2.9 -1.87858e-14 0)
(2.9 -2.69527e-14 0)
(2.9 -3.08732e-14 0)
(2.9 -4.32138e-14 0)
(2.9 -8.21782e-14 0)
(2.9 2.70273e-14 0)
(2.9 6.31632e-14 0)
(2.9 -1.36489e-14 0)
(2.9 -6.31009e-14 0)
(2.9 2.96211e-15 0)
(2.9 1.10519e-13 0)
(2.9 1.31661e-13 0)
(2.9 9.55674e-14 0)
(2.9 4.22171e-14 0)
(2.9 7.7718e-14 0)
(2.9 5.48478e-14 0)
(2.9 9.39726e-14 0)
(2.9 1.99855e-14 0)
(2.9 5.41064e-14 0)
(2.9 2.05911e-14 0)
(2.9 -5.79043e-14 0)
(2.9 -5.5515e-14 0)
(2.9 4.02098e-14 0)
(2.9 -2.18841e-14 0)
(2.9 -1.22243e-14 0)
(2.9 -4.01501e-15 0)
(2.9 -3.7854e-14 0)
(2.9 -1.51222e-14 0)
(2.9 9.30633e-15 0)
(2.9 4.83252e-14 0)
(2.9 5.25411e-15 0)
(2.9 1.7959e-14 0)
(2.9 -4.39692e-14 0)
(2.9 -3.85075e-14 0)
(2.9 5.93241e-14 0)
(2.9 1.39337e-13 0)
(2.9 2.17303e-14 0)
(2.9 -1.295e-15 0)
(2.9 -7.91003e-17 0)
(2.9 4.66039e-14 0)
(2.9 -1.50488e-14 0)
(2.9 -2.93746e-14 0)
(2.9 -4.05008e-14 0)
(2.9 -3.37817e-14 0)
(2.9 -9.79171e-16 0)
(2.9 -2.13961e-15 0)
(2.9 7.34116e-14 0)
(2.9 7.36795e-14 0)
(2.9 1.05977e-13 0)
(2.9 8.50323e-14 0)
(2.9 4.60249e-14 0)
(2.9 -5.40471e-14 0)
(2.9 -5.34963e-14 0)
(2.9 -3.26484e-14 0)
(2.9 3.94777e-14 0)
(2.9 9.54075e-14 0)
(2.9 5.81422e-14 0)
(2.9 -1.3139e-14 0)
(2.9 3.53751e-14 0)
(2.9 -1.31387e-14 0)
(2.9 -4.62992e-14 0)
(2.9 1.8895e-14 0)
(2.9 -5.59399e-14 0)
(2.9 -1.05463e-13 0)
(2.9 -6.61388e-14 0)
(2.9 5.95692e-14 0)
(2.9 1.02803e-13 0)
(2.9 2.08118e-14 0)
(2.9 -3.37835e-15 0)
(2.9 4.6064e-14 0)
(2.9 8.94001e-14 0)
(2.9 7.04745e-14 0)
(2.9 8.10041e-14 0)
(2.9 8.08759e-14 0)
(2.9 1.33304e-13 0)
(2.9 6.88255e-14 0)
(2.9 4.00281e-14 0)
(2.9 -1.87808e-14 0)
(2.9 1.79464e-14 0)
(2.9 2.45452e-15 0)
(2.9 -5.12623e-14 0)
(2.9 6.00433e-16 0)
(2.9 1.20868e-14 0)
(2.9 -4.71987e-14 0)
(2.9 1.12743e-15 0)
(2.9 4.01937e-14 0)
(2.9 2.06213e-14 0)
(2.9 6.51895e-15 0)
(2.9 2.72573e-14 0)
(2.9 6.52282e-14 0)
(2.9 4.089e-14 0)
(2.9 3.70105e-14 0)
(2.9 -3.46522e-14 0)
(2.9 2.99399e-14 0)
(2.9 5.42311e-14 0)
(2.9 1.33842e-13 0)
(2.9 -3.29808e-14 0)
(2.9 -5.15413e-14 0)
(2.9 6.08824e-14 0)
(2.9 1.00698e-13 0)
(2.9 9.07628e-15 0)
(2.9 -6.28186e-15 0)
(2.9 1.96585e-14 0)
(2.9 -4.91604e-14 0)
(2.9 -5.95092e-14 0)
(2.9 5.10206e-14 0)
(2.9 8.59707e-14 0)
(2.9 9.49639e-14 0)
(2.9 1.80369e-13 0)
(2.9 1.38737e-13 0)
(2.9 3.35952e-14 0)
(2.9 -1.36939e-13 0)
(2.9 -2.26019e-14 0)
(2.9 2.54177e-14 0)
(2.9 4.78299e-14 0)
(2.9 1.47152e-13 0)
(2.9 1.26998e-13 0)
(2.9 8.11004e-14 0)
(2.9 1.08102e-13 0)
(2.9 3.44413e-14 0)
(2.9 4.44292e-14 0)
(2.9 2.05074e-14 0)
(2.9 -9.76734e-14 0)
(2.9 -1.55236e-13 0)
(2.9 -5.88879e-14 0)
(2.9 8.51652e-14 0)
(2.9 1.23321e-13 0)
(2.9 8.19728e-14 0)
(2.9 7.16901e-14 0)
(2.9 1.06109e-13 0)
(2.9 3.71864e-14 0)
(2.9 4.81342e-14 0)
(2.9 8.82666e-14 0)
(2.9 3.49813e-14 0)
(2.9 1.36434e-13 0)
(2.9 9.318e-14 0)
(2.9 2.56713e-14 0)
(2.9 -6.01832e-14 0)
(2.9 -5.80008e-14 0)
(2.9 -7.46433e-14 0)
(2.9 -1.50541e-14 0)
(2.9 5.35046e-14 0)
(2.9 4.72579e-14 0)
(2.9 6.47917e-16 0)
(2.9 3.50954e-14 0)
(2.9 6.56352e-14 0)
(2.9 7.46015e-14 0)
(2.9 4.60357e-14 0)
(2.9 2.27202e-14 0)
(2.9 2.22704e-14 0)
(2.9 2.01558e-14 0)
(2.9 1.30581e-14 0)
(2.9 -8.14422e-15 0)
(2.9 1.03906e-13 0)
(2.9 1.25684e-13 0)
(2.9 1.56939e-13 0)
(2.9 -1.59116e-13 0)
(2.9 -1.15748e-13 0)
(2.9 1.14024e-14 0)
(2.9 5.76957e-14 0)
(2.9 9.60487e-15 0)
(2.9 -9.05075e-16 0)
(2.9 4.05605e-14 0)
(2.9 2.92696e-14 0)
(2.9 2.60886e-14 0)
(2.9 1.14921e-13 0)
(2.9 6.2937e-14 0)
(2.9 5.6993e-14 0)
(2.9 9.78017e-14 0)
(2.9 8.40505e-14 0)
(2.9 -3.11453e-14 0)
(2.9 -9.78045e-14 0)
(2.9 3.80513e-14 0)
(2.9 1.24834e-13 0)
(2.9 1.08195e-13 0)
(2.9 1.50987e-13 0)
(2.9 1.46104e-13 0)
(2.9 1.18021e-13 0)
(2.9 8.91209e-14 0)
(2.9 1.13386e-13 0)
(2.9 1.11346e-13 0)
(2.9 2.91179e-14 0)
(2.9 -6.20205e-14 0)
(2.9 -1.43825e-13 0)
(2.9 -1.97835e-14 0)
(2.9 7.27615e-14 0)
(2.9 7.63078e-14 0)
(2.9 4.05639e-14 0)
(2.9 -9.3449e-16 0)
(2.9 8.06434e-14 0)
(2.9 -3.32834e-15 0)
(2.9 1.88714e-14 0)
(2.9 -1.54528e-14 0)
(2.9 -4.33975e-14 0)
(2.9 4.34917e-14 0)
(2.9 -1.43164e-15 0)
(2.9 2.82959e-14 0)
(2.9 -2.46066e-14 0)
(2.9 -6.21752e-14 0)
(2.9 -1.14078e-13 0)
(2.9 -6.05511e-14 0)
(2.9 -5.01919e-14 0)
(2.9 3.29616e-14 0)
(2.9 -3.62296e-14 0)
(2.9 1.91108e-14 0)
(2.9 -4.81193e-14 0)
(2.9 -6.34719e-15 0)
(2.9 1.63846e-15 0)
(2.9 8.7531e-15 0)
(2.9 9.82058e-15 0)
(2.9 -1.68148e-14 0)
(2.9 -1.4436e-14 0)
(2.9 6.44601e-14 0)
(2.9 8.7257e-14 0)
(2.9 4.59461e-14 0)
(2.9 7.90896e-14 0)
(2.9 -6.81196e-14 0)
(2.9 -9.18241e-14 0)
(2.9 -3.87521e-14 0)
(2.9 3.43154e-14 0)
(2.9 6.59958e-14 0)
(2.9 3.45728e-14 0)
(2.9 1.78734e-15 0)
(2.9 3.21513e-14 0)
(2.9 5.9918e-14 0)
(2.9 8.69253e-14 0)
(2.9 3.06747e-14 0)
(2.9 8.69409e-15 0)
(2.9 2.09203e-14 0)
(2.9 4.81645e-14 0)
(2.9 3.64659e-14 0)
(2.9 2.24387e-14 0)
(2.9 4.84149e-14 0)
(2.9 1.063e-13 0)
(2.9 1.50718e-13 0)
(2.9 1.38553e-13 0)
(2.9 1.2066e-13 0)
(2.9 8.29961e-14 0)
(2.9 3.94913e-14 0)
(2.9 1.12671e-13 0)
(2.9 6.75386e-14 0)
(2.9 7.04418e-14 0)
(2.9 9.53874e-15 0)
(2.9 6.9823e-15 0)
(2.9 4.0192e-14 0)
(2.9 3.85942e-14 0)
(2.9 9.62466e-15 0)
(2.9 9.52184e-14 0)
(2.9 2.27669e-14 0)
(2.9 1.43827e-14 0)
(2.9 4.35734e-14 0)
(2.9 -3.47688e-14 0)
(2.9 -9.35511e-14 0)
(2.9 -2.05926e-14 0)
(2.9 -6.65168e-14 0)
(2.9 -8.8387e-14 0)
(2.9 -7.32694e-14 0)
(2.9 -1.91925e-14 0)
(2.9 -8.84248e-14 0)
(2.9 -3.85298e-14 0)
(2.9 -7.16269e-14 0)
(2.9 -1.42445e-13 0)
(2.9 -7.28597e-14 0)
(2.9 -8.53639e-14 0)
(2.9 -1.08739e-14 0)
(2.9 -6.88934e-14 0)
(2.9 8.67392e-15 0)
(2.9 -3.3421e-14 0)
(2.9 6.07281e-14 0)
(2.9 -1.91829e-16 0)
(2.9 -4.68194e-14 0)
(2.9 9.16643e-15 0)
(2.9 1.19938e-13 0)
(2.9 8.88539e-14 0)
(2.9 -5.1465e-15 0)
(2.9 -6.06541e-14 0)
(2.9 -8.22547e-15 0)
(2.9 -1.11362e-13 0)
(2.9 -2.41073e-14 0)
(2.9 -3.95081e-14 0)
(2.9 2.59946e-14 0)
(2.9 1.06271e-13 0)
(2.9 3.03316e-14 0)
(2.9 3.60236e-14 0)
(2.9 4.9015e-14 0)
(2.9 6.80124e-14 0)
(2.9 8.21446e-14 0)
(2.9 5.54097e-14 0)
(2.9 -2.44584e-14 0)
(2.9 6.39769e-14 0)
(2.9 9.00139e-14 0)
(2.9 4.74142e-14 0)
(2.9 -4.18074e-14 0)
(2.9 4.52496e-14 0)
(2.9 1.95117e-13 0)
(2.9 1.12812e-13 0)
(2.9 4.37435e-14 0)
(2.9 3.55966e-14 0)
(2.9 2.02853e-14 0)
(2.9 6.37343e-14 0)
(2.9 -4.61271e-14 0)
(2.9 1.60792e-14 0)
(2.9 1.07442e-13 0)
(2.9 1.80721e-13 0)
(2.9 8.34207e-14 0)
(2.9 1.29359e-14 0)
(2.9 -4.14338e-14 0)
(2.9 1.20653e-13 0)
(2.9 3.2346e-14 0)
(2.9 -4.36741e-14 0)
(2.9 4.93722e-14 0)
(2.9 -2.84677e-14 0)
(2.9 -6.02549e-14 0)
(2.9 2.32569e-14 0)
(2.9 -1.28652e-13 0)
(2.9 -8.18902e-14 0)
(2.9 -1.16405e-13 0)
(2.9 -4.05249e-14 0)
(2.9 -1.06556e-13 0)
(2.9 3.59638e-14 0)
(2.9 5.07123e-14 0)
(2.9 -6.46701e-14 0)
(2.9 -1.17885e-13 0)
(2.9 -7.88486e-14 0)
(2.9 -3.92715e-14 0)
(2.9 -1.72168e-14 0)
(2.9 -4.24029e-14 0)
(2.9 -7.80913e-14 0)
(2.9 5.63972e-14 0)
(2.9 -6.28935e-14 0)
(2.9 -3.76443e-14 0)
(2.9 3.39242e-14 0)
(2.9 1.04013e-13 0)
(2.9 1.33135e-13 0)
(2.9 -1.33985e-14 0)
(2.9 -1.71514e-13 0)
(2.9 -4.78255e-14 0)
(2.9 -5.27023e-14 0)
(2.9 -4.56306e-15 0)
(2.9 -1.02623e-13 0)
(2.9 -1.17068e-14 0)
(2.9 4.77617e-14 0)
(2.9 7.42775e-14 0)
(2.9 6.13361e-14 0)
(2.9 1.24947e-13 0)
(2.9 8.51705e-14 0)
(2.9 4.53506e-14 0)
(2.9 3.05272e-14 0)
(2.9 8.58756e-15 0)
(2.9 3.41347e-14 0)
(2.9 3.57982e-14 0)
(2.9 3.06145e-14 0)
(2.9 -3.91219e-14 0)
(2.9 4.8917e-14 0)
(2.9 9.82912e-14 0)
(2.9 4.20133e-14 0)
(2.9 4.30893e-14 0)
(2.9 4.82325e-14 0)
(2.9 6.29134e-14 0)
(2.9 1.20799e-13 0)
(2.9 1.70706e-14 0)
(2.9 2.84795e-15 0)
(2.9 5.09238e-14 0)
(2.9 9.55732e-14 0)
(2.9 3.56138e-14 0)
(2.9 5.69427e-14 0)
(2.9 2.45949e-14 0)
(2.9 9.15055e-14 0)
(2.9 2.81541e-14 0)
(2.9 -1.06338e-14 0)
(2.9 4.80615e-14 0)
(2.9 7.20953e-15 0)
(2.9 -4.51814e-14 0)
(2.9 1.60214e-14 0)
(2.9 -3.69328e-14 0)
(2.9 -2.86651e-14 0)
(2.9 -8.65734e-14 0)
(2.9 -1.49147e-14 0)
(2.9 -3.43498e-14 0)
(2.9 -1.48672e-14 0)
(2.9 1.81616e-14 0)
(2.9 -1.11946e-15 0)
(2.9 -4.14803e-14 0)
(2.9 -1.56701e-14 0)
(2.9 1.02838e-14 0)
(2.9 2.62331e-14 0)
(2.9 -4.21069e-15 0)
(2.9 1.32701e-14 0)
(2.9 5.76009e-14 0)
(2.9 -8.25383e-16 0)
(2.9 1.64931e-14 0)
(2.9 7.76384e-14 0)
(2.9 7.37447e-14 0)
(2.9 7.58157e-14 0)
(2.9 -2.56033e-14 0)
(2.9 -1.7522e-13 0)
(2.9 -6.73948e-14 0)
(2.9 -2.66698e-14 0)
(2.9 -5.51666e-14 0)
(2.9 -1.35904e-13 0)
(2.9 -5.82762e-14 0)
(2.9 -4.12599e-14 0)
(2.9 -1.77299e-14 0)
(2.9 -1.18003e-14 0)
(2.9 5.90965e-14 0)
(2.9 1.0066e-13 0)
(2.9 3.22708e-14 0)
(2.9 -1.97018e-14 0)
(2.9 -6.8566e-17 0)
(2.9 -3.66971e-14 0)
(2.9 -2.40485e-14 0)
(2.9 -3.19343e-14 0)
(2.9 -2.12652e-14 0)
(2.9 2.5321e-14 0)
(2.9 -5.02215e-14 0)
(2.9 3.25599e-14 0)
(2.9 4.69086e-14 0)
(2.9 2.28143e-14 0)
(2.9 5.57705e-14 0)
(2.9 1.03245e-13 0)
(2.9 5.97205e-14 0)
(2.9 7.88848e-15 0)
(2.9 -5.84311e-14 0)
(2.9 -4.58551e-14 0)
(2.9 2.02765e-14 0)
(2.9 7.78186e-14 0)
(2.9 6.38102e-14 0)
(2.9 8.72929e-14 0)
(2.9 2.73201e-14 0)
(2.9 6.49664e-14 0)
(2.9 6.89029e-14 0)
(2.9 7.8752e-14 0)
(2.9 1.41476e-14 0)
(2.9 -3.72576e-14 0)
(2.9 3.21457e-14 0)
(2.9 8.02123e-14 0)
(2.9 -1.68981e-15 0)
(2.9 3.47824e-14 0)
(2.9 7.48567e-14 0)
(2.9 -2.21496e-14 0)
(2.9 -3.08682e-14 0)
(2.9 1.69369e-14 0)
(2.9 3.93046e-14 0)
(2.9 3.04644e-14 0)
(2.9 1.21549e-14 0)
(2.9 6.05267e-14 0)
(2.9 6.2566e-14 0)
(2.9 1.39499e-13 0)
(2.9 9.03813e-14 0)
(2.9 1.20754e-13 0)
(2.9 1.14463e-13 0)
(2.9 1.55899e-13 0)
(2.9 9.11306e-14 0)
(2.9 6.05754e-14 0)
(2.9 -7.83871e-14 0)
(2.9 -1.17656e-13 0)
(2.9 -2.40235e-14 0)
(2.9 1.5433e-14 0)
(2.9 -4.73406e-14 0)
(2.9 -8.72807e-14 0)
(2.9 -1.01618e-13 0)
(2.9 -1.11913e-13 0)
(2.9 -7.69285e-14 0)
(2.9 -1.06987e-13 0)
(2.9 -8.08458e-15 0)
(2.9 -2.42866e-14 0)
(2.9 5.20916e-14 0)
(2.9 2.22133e-14 0)
(2.9 -2.53152e-14 0)
(2.9 -7.57914e-14 0)
(2.9 -3.57315e-14 0)
(2.9 -3.22312e-14 0)
(2.9 1.39784e-15 0)
(2.9 -6.26039e-14 0)
(2.9 -1.53312e-13 0)
(2.9 -4.62183e-15 0)
(2.9 8.83395e-14 0)
(2.9 -1.78512e-15 0)
(2.9 1.53857e-14 0)
(2.9 3.04223e-14 0)
(2.9 1.36986e-14 0)
(2.9 4.23683e-14 0)
(2.9 -4.67712e-14 0)
(2.9 -1.26574e-13 0)
(2.9 2.19557e-15 0)
(2.9 6.29517e-14 0)
(2.9 9.00699e-14 0)
(2.9 6.38601e-14 0)
(2.9 5.28565e-14 0)
(2.9 8.58843e-14 0)
(2.9 3.5759e-14 0)
(2.9 6.28933e-14 0)
(2.9 6.57105e-14 0)
(2.9 -3.36825e-14 0)
(2.9 8.76069e-14 0)
(2.9 1.65473e-13 0)
(2.9 1.00432e-13 0)
(2.9 1.15012e-14 0)
(2.9 9.66738e-14 0)
(2.9 3.1143e-14 0)
(2.9 1.61253e-14 0)
(2.9 5.40535e-14 0)
(2.9 7.45041e-15 0)
(2.9 9.32435e-14 0)
(2.9 3.25928e-15 0)
(2.9 9.49216e-14 0)
(2.9 1.32117e-13 0)
(2.9 1.79601e-13 0)
(2.9 1.24018e-13 0)
(2.9 1.38312e-13 0)
(2.9 9.04494e-14 0)
(2.9 1.7649e-13 0)
(2.9 1.70727e-13 0)
(2.9 1.11814e-13 0)
(2.9 -5.54905e-14 0)
(2.9 -1.51812e-15 0)
(2.9 3.6831e-14 0)
(2.9 4.45804e-14 0)
(2.9 4.79495e-14 0)
(2.9 1.37376e-14 0)
(2.9 -9.08626e-14 0)
(2.9 -1.00222e-13 0)
(2.9 -8.65715e-14 0)
(2.9 -5.0196e-14 0)
(2.9 -9.28802e-14 0)
(2.9 -1.84343e-14 0)
(2.9 4.6505e-14 0)
(2.9 -1.77999e-16 0)
(2.9 -5.25546e-14 0)
(2.9 -1.19659e-13 0)
(2.9 -2.43185e-14 0)
(2.9 8.43071e-15 0)
(2.9 6.22727e-14 0)
(2.9 -3.10778e-14 0)
(2.9 -8.81365e-14 0)
(2.9 -5.79977e-14 0)
(2.9 7.02434e-14 0)
(2.9 6.28192e-14 0)
(2.9 -2.89567e-15 0)
(2.9 -4.95339e-14 0)
(2.9 -5.7162e-14 0)
(2.9 -3.2247e-14 0)
(2.9 -7.15177e-14 0)
(2.9 -9.98891e-14 0)
(2.9 4.5484e-16 0)
(2.9 4.61069e-14 0)
(2.9 8.30509e-14 0)
(2.9 -1.34664e-14 0)
(2.9 2.00461e-14 0)
(2.9 3.81937e-14 0)
(2.9 -4.198e-14 0)
(2.9 5.82642e-14 0)
(2.9 9.24288e-14 0)
(2.9 1.96146e-14 0)
(2.9 9.73029e-14 0)
(2.9 1.44433e-13 0)
(2.9 4.91807e-14 0)
(2.9 -3.11273e-14 0)
(2.9 3.93643e-14 0)
(2.9 -1.67251e-14 0)
(2.9 5.46621e-14 0)
(2.9 3.61609e-14 0)
(2.9 4.30976e-14 0)
(2.9 6.83111e-14 0)
(2.9 1.72855e-14 0)
(2.9 2.7254e-14 0)
(2.9 9.39079e-14 0)
(2.9 8.77889e-14 0)
(2.9 1.41332e-14 0)
(2.9 5.31585e-14 0)
(2.9 8.25546e-15 0)
(2.9 6.36991e-15 0)
(2.9 1.11907e-13 0)
(2.9 6.2853e-14 0)
(2.9 6.27726e-14 0)
(2.9 1.16011e-13 0)
(2.9 1.05337e-13 0)
(2.9 1.05691e-13 0)
(2.9 7.77888e-14 0)
(2.9 6.39409e-14 0)
(2.9 -5.44724e-14 0)
(2.9 -2.74228e-14 0)
(2.9 -6.26147e-14 0)
(2.9 -4.31909e-14 0)
(2.9 -9.67955e-14 0)
(2.9 7.76217e-16 0)
(2.9 -2.11078e-14 0)
(2.9 -2.24579e-14 0)
(2.9 -1.23024e-13 0)
(2.9 -1.46743e-13 0)
(2.9 4.9163e-15 0)
(2.9 1.00486e-13 0)
(2.9 7.36327e-14 0)
(2.9 -1.04685e-14 0)
(2.9 -4.29918e-14 0)
(2.9 -7.50411e-14 0)
(2.9 5.6911e-14 0)
(2.9 3.12157e-14 0)
(2.9 -3.85675e-14 0)
(2.9 -1.52877e-13 0)
(2.9 -8.60601e-14 0)
(2.9 -8.51655e-14 0)
(2.9 -1.04516e-13 0)
(2.9 -8.44287e-14 0)
(2.9 1.99192e-14 0)
(2.9 1.15739e-14 0)
(2.9 2.5364e-14 0)
(2.9 -5.03566e-14 0)
(2.9 2.60555e-15 0)
(2.9 3.72602e-14 0)
(2.9 -3.95469e-14 0)
(2.9 2.00783e-14 0)
(2.9 1.2386e-13 0)
(2.9 5.30409e-14 0)
(2.9 5.63079e-14 0)
(2.9 1.06191e-14 0)
(2.9 3.84439e-14 0)
(2.9 -2.13263e-14 0)
(2.9 9.22948e-15 0)
(2.9 -2.99657e-14 0)
(2.9 1.71705e-14 0)
(2.9 3.14318e-14 0)
(2.9 8.79017e-14 0)
(2.9 1.98717e-14 0)
(2.9 1.92392e-14 0)
(2.9 -3.11691e-14 0)
(2.9 -1.666e-14 0)
(2.9 -2.49723e-14 0)
(2.9 -7.7875e-14 0)
(2.9 -2.27221e-14 0)
(2.9 -6.48131e-14 0)
(2.9 -6.72548e-14 0)
(2.9 -1.48211e-14 0)
(2.9 -9.37378e-14 0)
(2.9 3.25463e-15 0)
(2.9 1.11727e-13 0)
(2.9 5.66681e-14 0)
(2.9 5.99928e-14 0)
(2.9 2.19365e-14 0)
(2.9 6.48613e-14 0)
(2.9 6.89914e-14 0)
(2.9 2.65969e-14 0)
(2.9 -5.70887e-17 0)
(2.9 8.805e-15 0)
(2.9 -8.28326e-14 0)
(2.9 -4.2535e-14 0)
(2.9 -9.16675e-14 0)
(2.9 -3.50396e-14 0)
(2.9 -1.27602e-13 0)
(2.9 -9.24467e-14 0)
(2.9 -4.2803e-15 0)
(2.9 8.84588e-14 0)
(2.9 2.71148e-14 0)
(2.9 -5.17721e-14 0)
(2.9 -7.58827e-14 0)
(2.9 -3.51686e-14 0)
(2.9 3.04807e-14 0)
(2.9 -3.07676e-14 0)
(2.9 -8.84133e-14 0)
(2.9 -2.04099e-13 0)
(2.9 -7.76124e-14 0)
(2.9 -4.90619e-14 0)
(2.9 -8.50061e-14 0)
(2.9 -4.65619e-14 0)
(2.9 5.91185e-14 0)
(2.9 -3.45597e-14 0)
(2.9 -4.41758e-14 0)
(2.9 -5.05101e-14 0)
(2.9 3.37955e-15 0)
(2.9 3.26347e-14 0)
(2.9 -1.93154e-14 0)
(2.9 1.41576e-14 0)
(2.9 8.628e-14 0)
(2.9 3.23301e-14 0)
(2.9 -1.80603e-14 0)
(2.9 -7.98276e-14 0)
(2.9 9.07129e-15 0)
(2.9 1.04922e-13 0)
(2.9 7.29497e-14 0)
(2.9 9.86666e-15 0)
(2.9 -2.9001e-14 0)
(2.9 -3.54493e-14 0)
(2.9 5.48689e-14 0)
(2.9 2.9885e-14 0)
(2.9 7.2694e-14 0)
(2.9 -4.86308e-15 0)
(2.9 1.38323e-15 0)
(2.9 -3.64901e-14 0)
(2.9 -1.28924e-13 0)
(2.9 -5.66074e-14 0)
(2.9 -8.31564e-14 0)
(2.9 -9.17318e-14 0)
(2.9 -8.43888e-14 0)
(2.9 -1.81793e-13 0)
(2.9 -1.12709e-13 0)
(2.9 1.90049e-14 0)
(2.9 4.58214e-14 0)
(2.9 3.22915e-14 0)
(2.9 -1.46801e-14 0)
(2.9 8.75305e-14 0)
(2.9 1.26737e-13 0)
(2.9 2.73417e-14 0)
(2.9 5.6906e-14 0)
(2.9 -3.59638e-14 0)
(2.9 -5.18666e-14 0)
(2.9 -8.53491e-14 0)
(2.9 -7.36835e-14 0)
(2.9 -2.46135e-14 0)
(2.9 -6.62689e-14 0)
(2.9 -1.07439e-13 0)
(2.9 -5.99312e-14 0)
(2.9 -6.89556e-14 0)
(2.9 -4.04394e-14 0)
(2.9 -2.85857e-14 0)
(2.9 -6.87609e-14 0)
(2.9 -4.13379e-14 0)
(2.9 -4.08686e-14 0)
(2.9 -1.65193e-15 0)
(2.9 -4.53842e-14 0)
(2.9 -1.64142e-13 0)
(2.9 -1.61446e-13 0)
(2.9 -1.0512e-13 0)
(2.9 -4.99118e-14 0)
(2.9 4.32778e-15 0)
(2.9 1.4852e-14 0)
(2.9 -9.46647e-14 0)
(2.9 -6.79835e-14 0)
(2.9 -4.67198e-14 0)
(2.9 -3.97841e-14 0)
(2.9 -8.10431e-14 0)
(2.9 -9.3073e-14 0)
(2.9 -6.42813e-14 0)
(2.9 -3.99848e-14 0)
(2.9 -5.41484e-14 0)
(2.9 -9.69478e-14 0)
(2.9 -4.55151e-14 0)
(2.9 6.19385e-15 0)
(2.9 1.02415e-13 0)