/*--------------------------------*- C++ -*----------------------------------*\
| =========                 |                                                 |
| \\      /  F ield         | OpenFOAM: The Open Source CFD Toolbox           |
|  \\    /   O peration     | Version:  2412                                  |
|   \\  /    A nd           | Website:  www.openfoam.com                      |
|    \\/     M anipulation  |                                                 |
\*---------------------------------------------------------------------------*/
FoamFile
{
    version     2.0;
    format      ascii;
    arch        "LSB;label=32;scalar=64";
    class       surfaceScalarField;
    location    "0.0253745";
    object      phiRhoY_Y_N2;
}
// * * * * * * * * * * * * * * * * * * * * * * * * * * * * * * * * * * * * * //

dimensions      [1 0 -1 0 0 0 0];

internalField   nonuniform List<scalar> 
99
(
10.7183
21.418
32.0902
42.743
53.4094
64.0923
74.7771
85.4419
96.0892
106.716
117.323
127.913
138.442
148.96
159.45
169.933
180.404
190.796
201.202
211.571
221.898
232.147
242.336
252.467
262.577
272.759
283.026
293.452
303.877
314.074
323.783
332.898
341.528
349.864
358.067
366.393
375.571
386.918
400.567
412.603
419.241
423.941
432.908
466.354
530.404
545.068
545.029
543.008
543.054
543.04
535.884
518.836
515.062
514.761
514.665
517.338
522.719
522.656
518.481
522.722
530.796
525.099
508.502
508.291
542.275
548.748
471.246
93.5174
-0.744405
41.1278
73.0441
76.8051
29.7421
-38.6584
-56.433
-43.4275
-24.722
-7.96608
-3.27623
5.00654
14.151
26.1006
31.9765
29.2316
-0.641072
-26.1561
-34.1276
-14.6902
16.3534
12.6542
4.42042
0.0361775
-0.244452
-0.0472911
-0.00431607
5.61582e-06
2.1778e-05
7.48121e-07
0
)
;

boundaryField
{
    sides
    {
        type            calculated;
        value           uniform 0;
    }
    empty
    {
        type            empty;
    }
}


// ************************************************************************* //
