/*--------------------------------*- C++ -*----------------------------------*\
| =========                 |                                                 |
| \\      /  F ield         | OpenFOAM: The Open Source CFD Toolbox           |
|  \\    /   O peration     | Version:  2412                                  |
|   \\  /    A nd           | Website:  www.openfoam.com                      |
|    \\/     M anipulation  |                                                 |
\*---------------------------------------------------------------------------*/
FoamFile
{
    version     2.0;
    format      ascii;
    arch        "LSB;label=32;scalar=64";
    class       volScalarField;
    location    "0.0133754";
    object      p;
}
// * * * * * * * * * * * * * * * * * * * * * * * * * * * * * * * * * * * * * //

dimensions      [1 -1 -2 0 0 0 0];

internalField   nonuniform List<scalar> 
100
(
100000
100000
100000
100000
99998.3
99901.9
98781.4
95360.3
91081.9
87588.2
84928.4
82720.5
80710.5
78784.3
76902.5
75055.8
73243.8
71467.6
69726.5
68022
66347.8
64716.6
63095.6
61560.2
59950.3
58596.2
56879.6
55883.8
53866.2
53353.2
51023.4
50780.5
48545.7
48165.2
46262.1
45670.1
44080.5
43246.2
41933.8
40999.6
39845.8
38829.2
37806.9
36837.3
35873.6
34976
34187.7
33368.6
32487.2
31888.4
31658.7
31804.3
32015.3
31524.6
31315.2
31834.8
32528.4
32407.9
30986.8
30951.4
31976.4
32797.5
32505.8
30861.6
30962
31884.1
32768.9
32661.8
31332.7
31014.5
31485.4
32565.2
32484.5
32196.3
31134
31286.2
31531.5
32638.7
32774.2
32329.2
32048.9
31992.1
31368.5
31744.5
31997.3
31912.7
31913.8
32223.2
32211.3
32024.2
31579
32466
57042
93015.6
91375.6
88613.6
83741.3
88694.9
84119.8
87776.3
)
;

boundaryField
{
    sides
    {
        type            zeroGradient;
    }
    empty
    {
        type            empty;
    }
}


// ************************************************************************* //
