/*--------------------------------*- C++ -*----------------------------------*\
| =========                 |                                                 |
| \\      /  F ield         | OpenFOAM: The Open Source CFD Toolbox           |
|  \\    /   O peration     | Version:  2412                                  |
|   \\  /    A nd           | Website:  www.openfoam.com                      |
|    \\/     M anipulation  |                                                 |
\*---------------------------------------------------------------------------*/
FoamFile
{
    version     2.0;
    format      ascii;
    arch        "LSB;label=32;scalar=64";
    class       volScalarField;
    location    "0.0133754";
    object      rhoY_Y_N2;
}
// * * * * * * * * * * * * * * * * * * * * * * * * * * * * * * * * * * * * * //

dimensions      [1 -3 0 0 0 0 0];

internalField   nonuniform List<scalar> 
100
(
1.12308
1.12308
1.12308
1.12308
1.12307
1.12217
1.11196
1.08164
1.04416
1.01319
0.989252
0.969182
0.950803
0.933107
0.915733
0.898595
0.881688
0.865023
0.848601
0.832424
0.816475
0.800775
0.78527
0.770077
0.755026
0.740418
0.725979
0.711807
0.698354
0.683961
0.67162
0.657584
0.645037
0.632987
0.619919
0.608084
0.595787
0.584782
0.572184
0.560665
0.549312
0.538856
0.527549
0.516725
0.506209
0.49547
0.485792
0.480228
0.473599
0.72299
0.509394
0.502103
0.507092
0.514022
0.502819
0.472696
0.466718
0.500578
0.522605
0.499072
0.451214
0.449143
0.499476
0.528433
0.502949
0.448086
0.441602
0.485352
0.522957
0.511147
0.460017
0.439366
0.457206
0.510563
0.52637
0.500624
0.444549
0.42413
0.436812
0.486021
0.543281
0.548126
0.495153
0.383695
0.265042
0.168719
0.101467
0.0581001
0.0312848
0.0158013
0.00763805
0.00361878
0.00198732
0.000542486
4.99129e-05
2.29646e-06
1.27394e-08
-8.42063e-09
-1.20075e-09
-6.99527e-11
)
;

boundaryField
{
    sides
    {
        type            calculated;
        value           nonuniform List<scalar> 2(0 1.12308);
    }
    empty
    {
        type            empty;
    }
}


// ************************************************************************* //
