/*--------------------------------*- C++ -*----------------------------------*\
| =========                 |                                                 |
| \\      /  F ield         | OpenFOAM: The Open Source CFD Toolbox           |
|  \\    /   O peration     | Version:  2412                                  |
|   \\  /    A nd           | Website:  www.openfoam.com                      |
|    \\/     M anipulation  |                                                 |
\*---------------------------------------------------------------------------*/
FoamFile
{
    version     2.0;
    format      ascii;
    arch        "LSB;label=32;scalar=64";
    class       volVectorField;
    location    "4.90229e-05";
    object      U;
}
// * * * * * * * * * * * * * * * * * * * * * * * * * * * * * * * * * * * * * //

dimensions      [0 1 -1 0 0 0 0];

internalField   nonuniform List<vector> 
1800
(
(2.9 -2.33346e-15 0)
(2.9 2.45247e-14 0)
(2.9 -6.87999e-15 0)
(2.9 2.47391e-14 0)
(2.9 1.88702e-14 0)
(2.9 -6.73662e-16 0)
(2.9 -2.36786e-14 0)
(2.9 -3.42276e-15 0)
(2.9 -2.63867e-15 0)
(2.9 1.32036e-14 0)
(2.9 1.62378e-14 0)
(2.9 2.56232e-14 0)
(2.9 4.42224e-15 0)
(2.9 5.39283e-15 0)
(2.9 -2.70918e-14 0)
(2.9 -1.14263e-14 0)
(2.9 1.18391e-15 0)
(2.9 -2.36622e-14 0)
(2.9 -3.53499e-14 0)
(2.9 -1.03032e-14 0)
(2.9 -1.48418e-14 0)
(2.9 -3.07057e-14 0)
(2.9 1.61003e-14 0)
(2.9 -2.0371e-14 0)
(2.9 1.44515e-14 0)
(2.9 2.452e-15 0)
(2.9 -1.63265e-14 0)
(2.9 2.37941e-16 0)
(2.9 -5.67127e-15 0)
(2.9 -9.09638e-15 0)
(2.9 -5.54042e-15 0)
(2.9 -6.93425e-15 0)
(2.9 6.3098e-15 0)
(2.9 -5.26928e-15 0)
(2.9 -2.85457e-15 0)
(2.9 -2.08035e-14 0)
(2.9 -1.0209e-14 0)
(2.9 -1.19928e-15 0)
(2.9 -1.70488e-14 0)
(2.9 2.73205e-15 0)
(2.9 -5.48466e-15 0)
(2.9 -7.29761e-15 0)
(2.9 -2.83945e-15 0)
(2.9 3.17679e-14 0)
(2.9 -2.05274e-14 0)
(2.9 -9.96657e-15 0)
(2.9 -6.96351e-15 0)
(2.9 -1.20728e-14 0)
(2.9 -2.405e-14 0)
(2.9 -2.09797e-14 0)
(2.9 -2.94993e-14 0)
(2.9 -2.73588e-14 0)
(2.9 -7.30583e-15 0)
(2.9 -3.22911e-14 0)
(2.9 -1.98423e-14 0)
(2.9 -6.32396e-15 0)
(2.9 -5.00694e-15 0)
(2.9 -3.00931e-14 0)
(2.9 9.93178e-15 0)
(2.9 -1.06157e-14 0)
(2.9 8.94658e-15 0)
(2.9 -1.17135e-14 0)
(2.9 -3.24528e-14 0)
(2.9 5.7069e-15 0)
(2.9 1.99763e-14 0)
(2.9 -2.39529e-14 0)
(2.9 -1.43419e-14 0)
(2.9 -1.14361e-14 0)
(2.9 1.5322e-14 0)
(2.9 1.21151e-16 0)
(2.9 6.55305e-15 0)
(2.9 -1.57526e-15 0)
(2.9 1.27834e-14 0)
(2.9 4.33719e-14 0)
(2.9 9.17236e-15 0)
(2.9 1.37739e-14 0)
(2.9 4.2749e-15 0)
(2.9 -4.65602e-14 0)
(2.9 -1.77374e-14 0)
(2.9 -2.47839e-14 0)
(2.9 9.39982e-15 0)
(2.9 -2.3811e-14 0)
(2.9 5.06522e-15 0)
(2.9 -4.09681e-14 0)
(2.9 3.73371e-15 0)
(2.9 -2.14369e-14 0)
(2.9 -1.14661e-14 0)
(2.9 1.44246e-16 0)
(2.9 -2.13304e-14 0)
(2.9 -4.15946e-14 0)
(2.9 -2.16829e-14 0)
(2.9 -2.80158e-14 0)
(2.9 -9.69112e-15 0)
(2.9 -2.95552e-14 0)
(2.9 -8.09742e-15 0)
(2.9 -3.61582e-14 0)
(2.9 -3.511e-14 0)
(2.9 3.41343e-15 0)
(2.9 7.20759e-15 0)
(2.9 2.09612e-14 0)
(2.9 -2.03301e-14 0)
(2.9 -2.22805e-14 0)
(2.9 -1.80343e-14 0)
(2.9 9.63947e-15 0)
(2.9 -1.04726e-13 0)
(2.9 -3.99958e-14 0)
(2.9 -2.82377e-14 0)
(2.9 -7.20575e-14 0)
(2.9 -8.22398e-14 0)
(2.9 -5.96496e-14 0)
(2.9 -4.68212e-14 0)
(2.9 -3.08783e-14 0)
(2.9 -1.593e-14 0)
(2.9 -3.81064e-14 0)
(2.9 -3.26358e-14 0)
(2.9 -1.68577e-14 0)
(2.9 -7.77047e-15 0)
(2.9 -5.70994e-14 0)
(2.9 -1.06846e-14 0)
(2.9 -4.4516e-14 0)
(2.9 -6.09907e-15 0)
(2.9 7.06104e-15 0)
(2.9 -3.87366e-14 0)
(2.9 -1.08094e-14 0)
(2.9 1.28844e-14 0)
(2.9 -1.44585e-14 0)
(2.9 -2.1695e-14 0)
(2.9 -1.5299e-14 0)
(2.9 2.40273e-14 0)
(2.9 2.21967e-14 0)
(2.9 2.61438e-14 0)
(2.9 1.53442e-14 0)
(2.9 3.38037e-14 0)
(2.9 5.4026e-15 0)
(2.9 4.67229e-14 0)
(2.9 5.31288e-14 0)
(2.9 3.85883e-14 0)
(2.9 3.36131e-14 0)
(2.9 3.34504e-14 0)
(2.9 -2.82073e-15 0)
(2.9 -3.35694e-14 0)
(2.9 -7.84939e-15 0)
(2.9 5.35793e-14 0)
(2.9 5.09434e-14 0)
(2.9 -1.06599e-14 0)
(2.9 1.17737e-14 0)
(2.9 -2.03028e-14 0)
(2.9 1.10781e-14 0)
(2.9 2.20349e-14 0)
(2.9 -1.54284e-14 0)
(2.9 -7.54996e-14 0)
(2.9 -8.01161e-14 0)
(2.9 -6.22516e-14 0)
(2.9 -4.68149e-14 0)
(2.9 -9.86115e-15 0)
(2.9 -3.43454e-14 0)
(2.9 -5.87095e-14 0)
(2.9 -5.49988e-14 0)
(2.9 -2.26361e-14 0)
(2.9 -2.19234e-14 0)
(2.9 -6.94886e-14 0)
(2.9 -3.88812e-14 0)
(2.9 -4.46207e-14 0)
(2.9 -7.95571e-15 0)
(2.9 -5.96038e-15 0)
(2.9 -3.44204e-14 0)
(2.9 -5.89634e-14 0)
(2.9 -3.67834e-14 0)
(2.9 1.61471e-15 0)
(2.9 -3.8683e-15 0)
(2.9 -3.25979e-14 0)
(2.9 5.64957e-15 0)
(2.9 -1.761e-14 0)
(2.9 -2.9265e-14 0)
(2.9 -2.67197e-14 0)
(2.9 -5.0294e-15 0)
(2.9 -3.83156e-14 0)
(2.9 -6.67796e-14 0)
(2.9 5.52909e-15 0)
(2.9 4.54117e-15 0)
(2.9 2.0925e-14 0)
(2.9 -3.64917e-14 0)
(2.9 -3.28128e-14 0)
(2.9 -9.35274e-16 0)
(2.9 -3.24254e-14 0)
(2.9 8.39603e-15 0)
(2.9 -4.76286e-14 0)
(2.9 -6.28407e-14 0)
(2.9 -6.03583e-15 0)
(2.9 1.80972e-14 0)
(2.9 3.09683e-14 0)
(2.9 -5.75656e-15 0)
(2.9 -3.67493e-14 0)
(2.9 -2.03161e-14 0)
(2.9 -4.51594e-15 0)
(2.9 4.01522e-15 0)
(2.9 1.78951e-14 0)
(2.9 8.45365e-15 0)
(2.9 1.50548e-14 0)
(2.9 1.30234e-15 0)
(2.9 -3.84717e-14 0)
(2.9 -2.40812e-14 0)
(2.9 3.42918e-14 0)
(2.9 2.13817e-14 0)
(2.9 -1.11291e-14 0)
(2.9 1.28026e-14 0)
(2.9 5.84005e-15 0)
(2.9 -5.73836e-16 0)
(2.9 7.75975e-16 0)
(2.9 -3.68395e-15 0)
(2.9 -3.12808e-14 0)
(2.9 -3.21385e-14 0)
(2.9 -2.72498e-14 0)
(2.9 -4.96224e-14 0)
(2.9 -2.06573e-14 0)
(2.9 3.44052e-15 0)
(2.9 -9.59087e-15 0)
(2.9 -7.92108e-15 0)
(2.9 -1.84572e-14 0)
(2.9 -9.29252e-15 0)
(2.9 -1.46219e-14 0)
(2.9 -4.05015e-14 0)
(2.9 -1.52418e-14 0)
(2.9 1.10345e-14 0)
(2.9 4.5194e-14 0)
(2.9 9.42543e-15 0)
(2.9 -4.94208e-14 0)
(2.9 -2.72261e-14 0)
(2.9 1.54773e-14 0)
(2.9 4.59836e-15 0)
(2.9 -6.97068e-16 0)
(2.9 -5.88282e-15 0)
(2.9 -3.06921e-14 0)
(2.9 -3.94217e-14 0)
(2.9 -2.72053e-14 0)
(2.9 -1.87419e-14 0)
(2.9 -3.18897e-14 0)
(2.9 7.61504e-15 0)
(2.9 -1.68523e-14 0)
(2.9 5.58779e-14 0)
(2.9 2.20523e-16 0)
(2.9 -9.24457e-14 0)
(2.9 -3.47239e-14 0)
(2.9 -5.75205e-14 0)
(2.9 -5.5328e-15 0)
(2.9 2.42662e-14 0)
(2.9 -9.43403e-15 0)
(2.9 -1.10247e-14 0)
(2.9 -1.69902e-14 0)
(2.9 1.91423e-14 0)
(2.9 -3.43262e-15 0)
(2.9 -4.68949e-14 0)
(2.9 -4.15598e-14 0)
(2.9 -6.53183e-14 0)
(2.9 -5.1044e-14 0)
(2.9 -6.58079e-15 0)
(2.9 1.25409e-14 0)
(2.9 -4.66925e-15 0)
(2.9 -2.03522e-14 0)
(2.9 -5.6035e-14 0)
(2.9 -1.60419e-14 0)
(2.9 -9.12377e-15 0)
(2.9 -2.41925e-14 0)
(2.9 -1.20087e-14 0)
(2.9 -2.86529e-14 0)
(2.9 4.56404e-15 0)
(2.9 3.2882e-14 0)
(2.9 -1.51779e-14 0)
(2.9 -1.05978e-14 0)
(2.9 6.62066e-15 0)
(2.9 -3.7287e-14 0)
(2.9 -1.77691e-14 0)
(2.9 -1.5839e-14 0)
(2.9 -3.13505e-14 0)
(2.9 -2.83489e-14 0)
(2.9 1.45406e-15 0)
(2.9 1.40417e-14 0)
(2.9 2.16529e-14 0)
(2.9 -3.65101e-14 0)
(2.9 -2.15024e-14 0)
(2.9 6.16041e-15 0)
(2.9 3.16806e-14 0)
(2.9 5.3025e-15 0)
(2.9 4.48348e-14 0)
(2.9 3.13404e-14 0)
(2.9 2.09913e-14 0)
(2.9 -1.4752e-14 0)
(2.9 -4.03156e-14 0)
(2.9 -3.68332e-15 0)
(2.9 1.40673e-14 0)
(2.9 1.64367e-14 0)
(2.9 -2.00915e-14 0)
(2.9 -1.64444e-14 0)
(2.9 -3.29687e-14 0)
(2.9 -5.54786e-14 0)
(2.9 -6.31522e-14 0)
(2.9 2.74777e-15 0)
(2.9 7.97907e-14 0)
(2.9 3.03453e-14 0)
(2.9 6.69561e-15 0)
(2.9 -1.03743e-14 0)
(2.9 1.9517e-14 0)
(2.9 1.15901e-14 0)
(2.9 -6.85646e-14 0)
(2.9 5.85035e-14 0)
(2.9 -2.03405e-15 0)
(2.9 1.0565e-15 0)
(2.9 1.84714e-14 0)
(2.9 1.69874e-14 0)
(2.9 2.52399e-14 0)
(2.9 -4.12943e-14 0)
(2.9 -2.12579e-14 0)
(2.9 3.6835e-14 0)
(2.9 -4.81477e-14 0)
(2.9 -1.25293e-14 0)
(2.9 -1.33266e-14 0)
(2.9 -7.39822e-16 0)
(2.9 -1.52433e-14 0)
(2.9 -9.96787e-15 0)
(2.9 2.72333e-14 0)
(2.9 -9.7355e-15 0)
(2.9 -2.38934e-14 0)
(2.9 -4.55958e-15 0)
(2.9 2.26784e-14 0)
(2.9 1.42697e-14 0)
(2.9 -3.58577e-14 0)
(2.9 3.88264e-14 0)
(2.9 -1.14119e-14 0)
(2.9 -6.28159e-15 0)
(2.9 4.59517e-14 0)
(2.9 3.16302e-14 0)
(2.9 2.97389e-14 0)
(2.9 2.63008e-14 0)
(2.9 3.33709e-15 0)
(2.9 2.8282e-15 0)
(2.9 -2.49316e-14 0)
(2.9 -1.83479e-14 0)
(2.9 1.92764e-14 0)
(2.9 2.40888e-14 0)
(2.9 -3.07247e-14 0)
(2.9 1.42861e-14 0)
(2.9 -4.1478e-14 0)
(2.9 1.69983e-14 0)
(2.9 6.64389e-15 0)
(2.9 2.01141e-15 0)
(2.9 -3.6238e-14 0)
(2.9 1.77171e-15 0)
(2.9 1.06544e-14 0)
(2.9 1.98641e-14 0)
(2.9 2.55756e-14 0)
(2.9 1.80295e-14 0)
(2.9 4.34175e-14 0)
(2.9 9.38037e-15 0)
(2.9 -3.86297e-15 0)
(2.9 -6.5987e-14 0)
(2.9 -4.45902e-15 0)
(2.9 -2.95123e-14 0)
(2.9 5.36183e-15 0)
(2.9 -2.83821e-14 0)
(2.9 -7.17614e-14 0)
(2.9 1.97225e-15 0)
(2.9 3.86964e-14 0)
(2.9 6.96806e-14 0)
(2.9 -7.41339e-15 0)
(2.9 7.87587e-15 0)
(2.9 -2.40654e-14 0)
(2.9 2.34204e-14 0)
(2.9 1.64398e-16 0)
(2.9 1.61562e-14 0)
(2.9 1.36947e-14 0)
(2.9 2.88645e-14 0)
(2.9 8.73324e-15 0)
(2.9 2.91907e-14 0)
(2.9 -4.00306e-14 0)
(2.9 2.38718e-15 0)
(2.9 -1.17403e-14 0)
(2.9 -1.44656e-15 0)
(2.9 -2.40957e-14 0)
(2.9 3.01843e-14 0)
(2.9 7.17485e-14 0)
(2.9 1.83652e-14 0)
(2.9 2.28868e-14 0)
(2.9 6.1646e-15 0)
(2.9 1.99921e-14 0)
(2.9 1.06667e-14 0)
(2.9 -9.96852e-15 0)
(2.9 2.14542e-14 0)
(2.9 2.19971e-14 0)
(2.9 -3.99355e-14 0)
(2.9 -2.63751e-14 0)
(2.9 1.10556e-14 0)
(2.9 5.21091e-14 0)
(2.9 1.95434e-14 0)
(2.9 -1.79256e-14 0)
(2.9 -4.3412e-14 0)
(2.9 -1.02017e-14 0)
(2.9 1.20099e-15 0)
(2.9 4.21051e-15 0)
(2.9 1.36291e-14 0)
(2.9 7.08348e-15 0)
(2.9 5.47958e-14 0)
(2.9 5.30662e-15 0)
(2.9 1.76575e-14 0)
(2.9 8.24162e-15 0)
(2.9 -2.14342e-15 0)
(2.9 1.17028e-15 0)
(2.9 2.16017e-14 0)
(2.9 2.84765e-14 0)
(2.9 -2.8548e-14 0)
(2.9 9.4618e-15 0)
(2.9 -8.9529e-16 0)
(2.9 8.36848e-15 0)
(2.9 1.70588e-14 0)
(2.9 1.05628e-14 0)
(2.9 9.14695e-15 0)
(2.9 3.88867e-14 0)
(2.9 -1.71336e-14 0)
(2.9 2.16343e-14 0)
(2.9 -2.03553e-14 0)
(2.9 -4.24672e-14 0)
(2.9 2.95185e-15 0)
(2.9 4.9911e-14 0)
(2.9 -3.25855e-14 0)
(2.9 -6.57147e-15 0)
(2.9 2.95883e-14 0)
(2.9 1.01684e-14 0)
(2.9 8.17021e-14 0)
(2.9 -1.62611e-15 0)
(2.9 1.39547e-14 0)
(2.9 1.62949e-14 0)
(2.9 4.87259e-14 0)
(2.9 4.19422e-14 0)
(2.9 2.16651e-14 0)
(2.9 4.55755e-14 0)
(2.9 -8.15348e-15 0)
(2.9 2.35413e-15 0)
(2.9 4.30581e-15 0)
(2.9 -9.30322e-15 0)
(2.9 2.36276e-14 0)
(2.9 5.67387e-14 0)
(2.9 5.16421e-14 0)
(2.9 6.43947e-15 0)
(2.9 6.9587e-15 0)
(2.9 2.74174e-14 0)
(2.9 1.80734e-14 0)
(2.9 3.91633e-16 0)
(2.9 3.20571e-14 0)
(2.9 9.56324e-15 0)
(2.9 -1.17977e-14 0)
(2.9 2.334e-14 0)
(2.9 9.91659e-15 0)
(2.9 2.85431e-14 0)
(2.9 3.32845e-14 0)
(2.9 1.67637e-14 0)
(2.9 -1.32453e-14 0)
(2.9 9.03633e-15 0)
(2.9 3.46127e-14 0)
(2.9 5.16018e-15 0)
(2.9 4.44407e-14 0)
(2.9 -2.84094e-14 0)
(2.9 5.76085e-14 0)
(2.9 5.52338e-14 0)
(2.9 1.71114e-14 0)
(2.9 -2.04766e-14 0)
(2.9 -5.67166e-15 0)
(2.9 2.58615e-14 0)
(2.9 1.7603e-14 0)
(2.9 4.61398e-15 0)
(2.9 -9.48811e-15 0)
(2.9 -2.64636e-14 0)
(2.9 2.81724e-14 0)
(2.9 -1.08294e-14 0)
(2.9 -2.26195e-14 0)
(2.9 3.1134e-14 0)
(2.9 9.31494e-14 0)
(2.9 2.57038e-14 0)
(2.9 -1.20816e-14 0)
(2.9 2.60863e-15 0)
(2.9 -2.8941e-14 0)
(2.9 -7.35557e-14 0)
(2.9 -3.5537e-15 0)
(2.9 2.33328e-14 0)
(2.9 -2.24846e-14 0)
(2.9 6.703e-15 0)
(2.9 1.79369e-14 0)
(2.9 1.73238e-14 0)
(2.9 1.01315e-14 0)
(2.9 2.89896e-15 0)
(2.9 2.55609e-14 0)
(2.9 3.19742e-14 0)
(2.9 3.28407e-14 0)
(2.9 3.31017e-14 0)
(2.9 4.54275e-14 0)
(2.9 9.19289e-14 0)
(2.9 1.65704e-15 0)
(2.9 -1.78717e-14 0)
(2.9 4.29808e-16 0)
(2.9 -1.33101e-14 0)
(2.9 3.50083e-15 0)
(2.9 -2.15955e-14 0)
(2.9 2.97743e-14 0)
(2.9 -3.32027e-15 0)
(2.9 -1.65699e-14 0)
(2.9 -1.89046e-14 0)
(2.9 4.86141e-14 0)
(2.9 2.5237e-14 0)
(2.9 2.72402e-14 0)
(2.9 -2.96864e-15 0)
(2.9 4.19605e-14 0)
(2.9 2.40858e-14 0)
(2.9 1.51878e-14 0)
(2.9 5.96531e-15 0)
(2.9 1.94287e-14 0)
(2.9 5.05719e-14 0)
(2.9 6.43886e-15 0)
(2.9 6.18186e-14 0)
(2.9 3.90723e-14 0)
(2.9 3.42132e-15 0)
(2.9 3.0032e-14 0)
(2.9 -2.59573e-14 0)
(2.9 3.19522e-14 0)
(2.9 4.33379e-14 0)
(2.9 1.36893e-14 0)
(2.9 -4.08962e-14 0)
(2.9 -1.32048e-15 0)
(2.9 -3.42358e-14 0)
(2.9 -4.27396e-14 0)
(2.9 -7.89926e-15 0)
(2.9 5.50087e-14 0)
(2.9 1.90093e-14 0)
(2.9 9.03408e-15 0)
(2.9 3.48493e-14 0)
(2.9 1.7109e-14 0)
(2.9 2.12318e-14 0)
(2.9 -1.51436e-14 0)
(2.9 2.81517e-15 0)
(2.9 5.60345e-14 0)
(2.9 -1.47939e-14 0)
(2.9 -3.09124e-14 0)
(2.9 -1.15249e-14 0)
(2.9 -3.75442e-14 0)
(2.9 -8.92833e-15 0)
(2.9 1.65769e-14 0)
(2.9 4.52916e-14 0)
(2.9 -2.58899e-14 0)
(2.9 2.03496e-14 0)
(2.9 -2.74828e-14 0)
(2.9 -3.31639e-15 0)
(2.9 3.30815e-14 0)
(2.9 3.8459e-14 0)
(2.9 4.25909e-14 0)
(2.9 -2.15829e-15 0)
(2.9 -1.49845e-14 0)
(2.9 2.60126e-14 0)
(2.9 -1.04528e-14 0)
(2.9 -3.51535e-14 0)
(2.9 2.36223e-15 0)
(2.9 4.39648e-14 0)
(2.9 5.30636e-16 0)
(2.9 -4.52678e-14 0)
(2.9 2.19578e-14 0)
(2.9 4.21937e-14 0)
(2.9 -1.94006e-14 0)
(2.9 -1.76765e-14 0)
(2.9 1.65375e-14 0)
(2.9 1.09731e-14 0)
(2.9 -1.356e-14 0)
(2.9 -2.52126e-14 0)
(2.9 2.24882e-14 0)
(2.9 -1.776e-14 0)
(2.9 1.08197e-15 0)
(2.9 -4.15675e-14 0)
(2.9 -2.63553e-14 0)
(2.9 2.33885e-14 0)
(2.9 1.17797e-14 0)
(2.9 5.70162e-14 0)
(2.9 4.24852e-14 0)
(2.9 -2.21453e-14 0)
(2.9 1.67987e-14 0)
(2.9 9.16053e-15 0)
(2.9 -9.07386e-15 0)
(2.9 -3.60823e-15 0)
(2.9 -3.61224e-14 0)
(2.9 -7.28718e-14 0)
(2.9 -9.25885e-14 0)
(2.9 -6.89431e-14 0)
(2.9 -9.64506e-15 0)
(2.9 2.64399e-15 0)
(2.9 1.60078e-14 0)
(2.9 1.85916e-15 0)
(2.9 -4.86184e-15 0)
(2.9 6.5776e-15 0)
(2.9 -1.07537e-14 0)
(2.9 -1.47204e-14 0)
(2.9 -1.57679e-15 0)
(2.9 -1.25747e-14 0)
(2.9 5.9414e-14 0)
(2.9 6.93773e-15 0)
(2.9 -2.03986e-14 0)
(2.9 1.86742e-14 0)
(2.9 -1.51107e-14 0)
(2.9 -2.11865e-14 0)
(2.9 1.65352e-14 0)
(2.9 4.05776e-14 0)
(2.9 2.55329e-14 0)
(2.9 6.98962e-14 0)
(2.9 2.23563e-14 0)
(2.9 3.73839e-14 0)
(2.9 -1.5984e-14 0)
(2.9 1.8258e-14 0)
(2.9 -9.14117e-15 0)
(2.9 -4.24327e-14 0)
(2.9 -8.23719e-15 0)
(2.9 -2.50302e-14 0)
(2.9 6.10198e-14 0)
(2.9 2.61637e-14 0)
(2.9 1.64911e-14 0)
(2.9 6.18287e-14 0)
(2.9 2.64046e-14 0)
(2.9 -4.02284e-15 0)
(2.9 3.39157e-14 0)
(2.9 1.25824e-14 0)
(2.9 -3.30346e-14 0)
(2.9 -1.73199e-14 0)
(2.9 9.31539e-15 0)
(2.9 1.19104e-14 0)
(2.9 -5.46641e-14 0)
(2.9 -3.86204e-14 0)
(2.9 -3.21583e-14 0)
(2.9 -4.09947e-14 0)
(2.9 -4.43282e-14 0)
(2.9 -1.06134e-13 0)
(2.9 -3.33142e-14 0)
(2.9 -2.53546e-14 0)
(2.9 3.31401e-14 0)
(2.9 3.92197e-14 0)
(2.9 2.05534e-14 0)
(2.9 -5.90984e-14 0)
(2.9 -2.74768e-14 0)
(2.9 4.81179e-15 0)
(2.9 -4.54979e-14 0)
(2.9 -1.15249e-14 0)
(2.9 -3.24434e-14 0)
(2.9 -1.0213e-13 0)
(2.9 -4.04262e-14 0)
(2.9 -1.06611e-14 0)
(2.9 5.03867e-14 0)
(2.9 3.40911e-14 0)
(2.9 6.85983e-15 0)
(2.9 3.77682e-15 0)
(2.9 -1.5719e-14 0)
(2.9 4.05565e-14 0)
(2.9 -4.93889e-16 0)
(2.9 -3.2907e-14 0)
(2.9 3.39196e-14 0)
(2.9 2.60617e-14 0)
(2.9 2.24923e-14 0)
(2.9 6.46637e-14 0)
(2.9 3.80436e-14 0)
(2.9 6.48131e-14 0)
(2.9 2.31197e-14 0)
(2.9 1.27146e-14 0)
(2.9 1.59467e-14 0)
(2.9 -1.56748e-14 0)
(2.9 -8.07964e-15 0)
(2.9 6.82232e-15 0)
(2.9 -2.12302e-14 0)
(2.9 2.49741e-15 0)
(2.9 -8.75419e-15 0)
(2.9 -5.49949e-14 0)
(2.9 -2.61064e-14 0)
(2.9 -1.32678e-14 0)
(2.9 -1.91154e-14 0)
(2.9 1.16481e-14 0)
(2.9 2.46794e-15 0)
(2.9 1.67083e-14 0)
(2.9 3.72279e-14 0)
(2.9 2.51779e-14 0)
(2.9 1.78687e-14 0)
(2.9 3.90259e-14 0)
(2.9 -2.36111e-14 0)
(2.9 1.53562e-14 0)
(2.9 -7.87531e-14 0)
(2.9 -2.34663e-14 0)
(2.9 -2.65038e-14 0)
(2.9 -5.55772e-15 0)
(2.9 -6.96642e-15 0)
(2.9 9.91747e-15 0)
(2.9 1.3896e-14 0)
(2.9 2.83074e-14 0)
(2.9 -1.30338e-14 0)
(2.9 -7.49361e-15 0)
(2.9 -2.31972e-14 0)
(2.9 -3.07446e-15 0)
(2.9 3.52987e-14 0)
(2.9 -2.22881e-14 0)
(2.9 -3.80375e-14 0)
(2.9 1.87657e-14 0)
(2.9 -2.92421e-14 0)
(2.9 1.60121e-14 0)
(2.9 -1.03737e-14 0)
(2.9 1.06171e-14 0)
(2.9 7.31616e-15 0)
(2.9 5.41956e-14 0)
(2.9 3.80545e-14 0)
(2.9 4.25774e-15 0)
(2.9 -2.81653e-14 0)
(2.9 2.67782e-14 0)
(2.9 3.27199e-14 0)
(2.9 5.51114e-14 0)
(2.9 3.57258e-14 0)
(2.9 -1.06032e-14 0)
(2.9 3.68159e-14 0)
(2.9 4.16051e-15 0)
(2.9 4.80295e-14 0)
(2.9 1.95907e-14 0)
(2.9 2.0437e-14 0)
(2.9 1.72055e-14 0)
(2.9 3.26752e-14 0)
(2.9 1.54324e-14 0)
(2.9 1.18656e-15 0)
(2.9 -1.74275e-15 0)
(2.9 4.54372e-14 0)
(2.9 7.81765e-15 0)
(2.9 -3.56634e-14 0)
(2.9 -3.2667e-14 0)
(2.9 -6.91269e-15 0)
(2.9 -2.04925e-14 0)
(2.9 1.34524e-14 0)
(2.9 -6.77748e-14 0)
(2.9 -4.73054e-15 0)
(2.9 1.23363e-15 0)
(2.9 9.31173e-15 0)
(2.9 6.32814e-14 0)
(2.9 -6.47304e-14 0)
(2.9 -1.47678e-14 0)
(2.9 9.76055e-15 0)
(2.9 1.0565e-14 0)
(2.9 2.00376e-15 0)
(2.9 4.62741e-15 0)
(2.9 -1.16527e-14 0)
(2.9 7.16852e-15 0)
(2.9 8.68044e-15 0)
(2.9 -9.57009e-15 0)
(2.9 -1.69021e-14 0)
(2.9 -7.85218e-15 0)
(2.9 4.93047e-15 0)
(2.9 -2.50636e-15 0)
(2.9 2.55854e-14 0)
(2.9 1.04237e-14 0)
(2.9 -1.54167e-14 0)
(2.9 4.26224e-14 0)
(2.9 -5.16584e-15 0)
(2.9 2.89101e-15 0)
(2.9 -3.96186e-14 0)
(2.9 -1.72079e-14 0)
(2.9 -2.84352e-14 0)
(2.9 3.89644e-14 0)
(2.9 -1.62635e-14 0)
(2.9 -9.77439e-15 0)
(2.9 1.03612e-17 0)
(2.9 1.93493e-14 0)
(2.9 1.67906e-14 0)
(2.9 6.04264e-14 0)
(2.9 8.55491e-15 0)
(2.9 5.24639e-15 0)
(2.9 6.37093e-15 0)
(2.9 5.05361e-15 0)
(2.9 -9.20682e-15 0)
(2.9 -1.55796e-14 0)
(2.9 -1.06702e-16 0)
(2.9 -1.71617e-14 0)
(2.9 -4.92688e-15 0)
(2.9 2.26961e-15 0)
(2.9 -4.75262e-14 0)
(2.9 -1.78187e-14 0)
(2.9 1.86959e-15 0)
(2.9 -3.12423e-14 0)
(2.9 -5.85222e-15 0)
(2.9 -6.54286e-14 0)
(2.9 -3.98195e-14 0)
(2.9 -3.46238e-14 0)
(2.9 5.71645e-14 0)
(2.9 3.94825e-14 0)
(2.9 -2.04063e-14 0)
(2.9 -1.68705e-14 0)
(2.9 1.48936e-14 0)
(2.9 -6.00002e-14 0)
(2.9 -9.06705e-15 0)
(2.9 -1.54947e-14 0)
(2.9 1.38759e-14 0)
(2.9 1.8188e-14 0)
(2.9 2.1962e-14 0)
(2.9 3.99473e-14 0)
(2.9 -3.39937e-14 0)
(2.9 -3.47802e-14 0)
(2.9 -5.34667e-14 0)
(2.9 1.35603e-15 0)
(2.9 -2.69299e-14 0)
(2.9 5.61999e-15 0)
(2.9 4.38918e-15 0)
(2.9 4.90567e-14 0)
(2.9 9.93125e-14 0)
(2.9 3.23566e-14 0)
(2.9 -1.64706e-14 0)
(2.9 -2.2622e-14 0)
(2.9 -2.63797e-15 0)
(2.9 2.08545e-14 0)
(2.9 5.14732e-14 0)
(2.9 2.78022e-14 0)
(2.9 -5.28927e-14 0)
(2.9 3.29067e-14 0)
(2.9 2.18527e-14 0)
(2.9 2.98752e-14 0)
(2.9 -8.76389e-16 0)
(2.9 -1.62236e-14 0)
(2.9 -4.61928e-15 0)
(2.9 -1.01913e-14 0)
(2.9 -2.38583e-14 0)
(2.9 -4.62311e-14 0)
(2.9 -5.18868e-14 0)
(2.9 1.67623e-14 0)
(2.9 2.85239e-14 0)
(2.9 1.05024e-13 0)
(2.9 6.50835e-14 0)
(2.9 8.6438e-14 0)
(2.9 6.3574e-14 0)
(2.9 2.39869e-14 0)
(2.9 -6.02415e-14 0)
(2.9 -5.89924e-14 0)
(2.9 -7.83374e-14 0)
(2.9 -2.72971e-14 0)
(2.9 5.15318e-14 0)
(2.9 1.73254e-14 0)
(2.9 -1.5016e-14 0)
(2.9 -3.3498e-14 0)
(2.9 -5.0507e-14 0)
(2.9 -6.99109e-14 0)
(2.9 3.92507e-15 0)
(2.9 -2.3734e-14 0)
(2.9 -2.25713e-15 0)
(2.9 -3.61519e-14 0)
(2.9 -1.21959e-14 0)
(2.9 -1.3499e-14 0)
(2.9 4.15531e-14 0)
(2.9 -1.77419e-14 0)
(2.9 2.06809e-14 0)
(2.9 1.13048e-14 0)
(2.9 1.46609e-14 0)
(2.9 4.03136e-14 0)
(2.9 1.69254e-14 0)
(2.9 2.39432e-14 0)
(2.9 -3.11948e-14 0)
(2.9 -1.82387e-14 0)
(2.9 -1.83851e-14 0)
(2.9 6.04078e-15 0)
(2.9 -5.63391e-14 0)
(2.9 2.18503e-15 0)
(2.9 -3.27167e-14 0)
(2.9 3.12075e-14 0)
(2.9 -1.18528e-14 0)
(2.9 1.79305e-15 0)
(2.9 5.41672e-14 0)
(2.9 8.04682e-15 0)
(2.9 1.59125e-15 0)
(2.9 -6.20901e-15 0)
(2.9 -3.5274e-14 0)
(2.9 1.76258e-14 0)
(2.9 7.16806e-15 0)
(2.9 -1.49332e-14 0)
(2.9 -2.05813e-15 0)
(2.9 2.64212e-15 0)
(2.9 -2.18176e-15 0)
(2.9 2.76492e-14 0)
(2.9 1.82329e-14 0)
(2.9 -1.52697e-14 0)
(2.9 -2.47505e-15 0)
(2.9 -1.54891e-14 0)
(2.9 -5.79184e-15 0)
(2.9 -1.82258e-14 0)
(2.9 -1.72508e-14 0)
(2.9 -3.10714e-15 0)
(2.9 1.86508e-14 0)
(2.9 6.47114e-14 0)
(2.9 3.22997e-14 0)
(2.9 7.2549e-14 0)
(2.9 3.25343e-14 0)
(2.9 -8.15824e-15 0)
(2.9 -2.0511e-14 0)
(2.9 -1.14466e-14 0)
(2.9 -3.04935e-14 0)
(2.9 -1.49577e-14 0)
(2.9 1.32485e-14 0)
(2.9 2.46781e-14 0)
(2.9 4.63494e-14 0)
(2.9 7.14197e-14 0)
(2.9 -5.05774e-14 0)
(2.9 -2.72193e-14 0)
(2.9 8.12697e-15 0)
(2.9 6.00677e-15 0)
(2.9 -2.38091e-14 0)
(2.9 1.19652e-14 0)
(2.9 -4.51075e-14 0)
(2.9 -2.03538e-14 0)
(2.9 1.86604e-14 0)
(2.9 1.45078e-14 0)
(2.9 1.84199e-14 0)
(2.9 5.63647e-14 0)
(2.9 1.77992e-14 0)
(2.9 4.72033e-14 0)
(2.9 -5.32854e-15 0)
(2.9 7.32151e-14 0)
(2.9 -9.70847e-15 0)
(2.9 -2.7896e-14 0)
(2.9 -2.27476e-14 0)
(2.9 8.17351e-15 0)
(2.9 -7.3919e-15 0)
(2.9 -4.59941e-14 0)
(2.9 -3.48187e-14 0)
(2.9 1.37264e-14 0)
(2.9 -6.8045e-14 0)
(2.9 -6.42358e-14 0)
(2.9 -2.89775e-15 0)
(2.9 -8.30705e-15 0)
(2.9 1.20769e-14 0)
(2.9 7.95158e-15 0)
(2.9 -7.99586e-14 0)
(2.9 -7.78482e-15 0)
(2.9 -2.46234e-14 0)
(2.9 -2.82312e-14 0)
(2.9 1.32014e-14 0)
(2.9 -2.05983e-14 0)
(2.9 -1.8264e-14 0)
(2.9 -5.56368e-15 0)
(2.9 -2.21954e-15 0)
(2.9 -6.38389e-14 0)
(2.9 -1.74636e-14 0)
(2.9 -6.14374e-15 0)
(2.9 -6.04383e-15 0)
(2.9 -7.83619e-15 0)
(2.9 4.48238e-14 0)
(2.9 -3.82163e-14 0)
(2.9 2.08234e-17 0)
(2.9 7.3257e-15 0)
(2.9 3.41996e-14 0)
(2.9 1.79244e-14 0)
(2.9 7.53619e-14 0)
(2.9 -1.81502e-14 0)
(2.9 -4.19712e-14 0)
(2.9 3.27507e-14 0)
(2.9 1.35114e-14 0)
(2.9 -1.88982e-14 0)
(2.9 -1.39155e-14 0)
(2.9 1.19594e-14 0)
(2.9 2.12646e-14 0)
(2.9 2.83577e-14 0)
(2.9 -3.82184e-15 0)
(2.9 -3.06537e-14 0)
(2.9 -4.82524e-16 0)
(2.9 2.35293e-14 0)
(2.9 -2.08606e-14 0)
(2.9 5.90829e-14 0)
(2.9 -1.94719e-14 0)
(2.9 1.67535e-14 0)
(2.9 -1.85253e-14 0)
(2.9 -4.83151e-14 0)
(2.9 -1.37563e-14 0)
(2.9 2.16477e-14 0)
(2.9 -5.67698e-14 0)
(2.9 -3.17231e-14 0)
(2.9 -4.719e-15 0)
(2.9 2.07814e-14 0)
(2.9 6.09136e-14 0)
(2.9 -6.56611e-16 0)
(2.9 -5.88932e-15 0)
(2.9 2.06975e-14 0)
(2.9 4.41014e-14 0)
(2.9 -3.19771e-14 0)
(2.9 -1.60555e-14 0)
(2.9 -4.39804e-14 0)
(2.9 -6.67877e-14 0)
(2.9 -8.2846e-14 0)
(2.9 -4.63485e-14 0)
(2.9 1.33684e-14 0)
(2.9 3.63403e-14 0)
(2.9 4.88437e-14 0)
(2.9 1.39675e-14 0)
(2.9 8.94057e-15 0)
(2.9 -4.31223e-14 0)
(2.9 -4.32178e-14 0)
(2.9 4.30748e-14 0)
(2.9 3.70445e-14 0)
(2.9 4.15384e-14 0)
(2.9 -5.60877e-15 0)
(2.9 2.52743e-16 0)
(2.9 5.17703e-15 0)
(2.9 -1.7438e-14 0)
(2.9 9.23124e-15 0)
(2.9 -3.01494e-14 0)
(2.9 -2.23878e-14 0)
(2.9 8.40316e-14 0)
(2.9 -1.67199e-14 0)
(2.9 1.21957e-14 0)
(2.9 -1.69388e-14 0)
(2.9 2.8388e-14 0)
(2.9 -6.77352e-15 0)
(2.9 2.32981e-14 0)
(2.9 -2.35603e-15 0)
(2.9 -3.10781e-14 0)
(2.9 -1.17293e-14 0)
(2.9 1.9335e-14 0)
(2.9 -3.82119e-15 0)
(2.9 -3.38945e-14 0)
(2.9 5.58163e-15 0)
(2.9 -1.19894e-14 0)
(2.9 -3.63369e-14 0)
(2.9 -5.28667e-14 0)
(2.9 2.70075e-14 0)
(2.9 2.65674e-14 0)
(2.9 1.16402e-14 0)
(2.9 -2.47729e-15 0)
(2.9 2.12197e-14 0)
(2.9 -3.40996e-15 0)
(2.9 3.51982e-14 0)
(2.9 4.60109e-15 0)
(2.9 -2.16548e-14 0)
(2.9 4.41324e-15 0)
(2.9 8.1222e-17 0)
(2.9 -4.21006e-14 0)
(2.9 -3.66339e-14 0)
(2.9 1.25135e-15 0)
(2.9 -2.34453e-15 0)
(2.9 2.24025e-14 0)
(2.9 4.38374e-15 0)
(2.9 4.16742e-14 0)
(2.9 -1.84478e-14 0)
(2.9 1.39304e-14 0)
(2.9 1.72101e-14 0)
(2.9 1.6786e-14 0)
(2.9 -1.51775e-14 0)
(2.9 -1.53274e-14 0)
(2.9 1.87815e-14 0)
(2.9 -9.0465e-16 0)
(2.9 1.28859e-14 0)
(2.9 2.13486e-14 0)
(2.9 1.45417e-14 0)
(2.9 8.5994e-15 0)
(2.9 7.76779e-15 0)
(2.9 -3.14182e-14 0)
(2.9 1.38428e-14 0)
(2.9 -1.50898e-14 0)
(2.9 2.05645e-14 0)
(2.9 1.12755e-15 0)
(2.9 7.1073e-15 0)
(2.9 1.22857e-14 0)
(2.9 -2.21818e-15 0)
(2.9 -6.49733e-16 0)
(2.9 -5.92217e-16 0)
(2.9 -4.29721e-14 0)
(2.9 1.92782e-15 0)
(2.9 4.53152e-14 0)
(2.9 1.02769e-14 0)
(2.9 -1.18827e-14 0)
(2.9 -2.84172e-14 0)
(2.9 -1.61581e-14 0)
(2.9 -2.1939e-14 0)
(2.9 -3.59896e-14 0)
(2.9 9.88278e-15 0)
(2.9 -9.02621e-15 0)
(2.9 -2.65424e-15 0)
(2.9 -7.81157e-15 0)
(2.9 3.9932e-15 0)
(2.9 -1.42723e-15 0)
(2.9 2.18913e-14 0)
(2.9 1.77314e-14 0)
(2.9 -1.23959e-14 0)
(2.9 -1.09976e-14 0)
(2.9 5.27867e-14 0)
(2.9 1.9446e-14 0)
(2.9 1.92592e-14 0)
(2.9 1.00591e-14 0)
(2.9 1.38828e-14 0)
(2.9 2.01942e-14 0)
(2.9 2.73516e-15 0)
(2.9 2.02563e-14 0)
(2.9 2.16855e-14 0)
(2.9 2.46219e-14 0)
(2.9 -2.44752e-14 0)
(2.9 -2.39307e-14 0)
(2.9 -1.6643e-14 0)
(2.9 1.91454e-14 0)
(2.9 1.36711e-14 0)
(2.9 1.98452e-14 0)
(2.9 -6.36578e-15 0)
(2.9 -5.73901e-14 0)
(2.9 -5.51169e-14 0)
(2.9 -1.25035e-14 0)
(2.9 2.97992e-14 0)
(2.9 1.37729e-14 0)
(2.9 1.5759e-15 0)
(2.9 5.15108e-14 0)
(2.9 3.23613e-14 0)
(2.9 -1.04045e-14 0)
(2.9 -2.19642e-14 0)
(2.9 4.80854e-15 0)
(2.9 3.71688e-15 0)
(2.9 2.55705e-14 0)
(2.9 8.04997e-15 0)
(2.9 -4.82509e-15 0)
(2.9 1.42516e-14 0)
(2.9 1.05133e-14 0)
(2.9 -3.15866e-14 0)
(2.9 1.11605e-14 0)
(2.9 -1.55235e-14 0)
(2.9 -1.1584e-14 0)
(2.9 -6.46075e-15 0)
(2.9 -2.95445e-14 0)
(2.9 2.77598e-15 0)
(2.9 1.21985e-14 0)
(2.9 3.66514e-14 0)
(2.9 3.12391e-15 0)
(2.9 -6.95169e-15 0)
(2.9 -2.41284e-14 0)
(2.9 -4.75477e-14 0)
(2.9 -1.60436e-14 0)
(2.9 -4.58941e-14 0)
(2.9 -5.7473e-14 0)
(2.9 -5.686e-15 0)
(2.9 -1.4108e-15 0)
(2.9 2.83716e-15 0)
(2.9 1.72206e-14 0)
(2.9 -3.18767e-15 0)
(2.9 -1.06803e-14 0)
(2.9 1.45003e-14 0)
(2.9 -1.296e-14 0)
(2.9 -1.49312e-15 0)
(2.9 -4.2806e-15 0)
(2.9 -2.81096e-14 0)
(2.9 -4.97737e-15 0)
(2.9 3.24091e-14 0)
(2.9 1.80728e-14 0)
(2.9 -3.07621e-14 0)
(2.9 3.70467e-14 0)
(2.9 -3.6944e-14 0)
(2.9 -1.34138e-14 0)
(2.9 3.27785e-14 0)
(2.9 2.11856e-14 0)
(2.9 3.64881e-14 0)
(2.9 -1.24076e-14 0)
(2.9 2.46322e-14 0)
(2.9 1.69237e-14 0)
(2.9 -1.62154e-14 0)
(2.9 -1.29121e-15 0)
(2.9 -5.3105e-15 0)
(2.9 -5.55843e-14 0)
(2.9 4.68407e-14 0)
(2.9 -1.68876e-14 0)
(2.9 1.88897e-14 0)
(2.9 -2.82065e-14 0)
(2.9 -2.36208e-14 0)
(2.9 3.4131e-14 0)
(2.9 -3.31e-15 0)
(2.9 -5.5866e-14 0)
(2.9 -3.46745e-14 0)
(2.9 -4.00363e-14 0)
(2.9 3.83543e-15 0)
(2.9 4.50098e-14 0)
(2.9 1.19037e-14 0)
(2.9 1.23459e-14 0)
(2.9 1.86747e-14 0)
(2.9 5.75522e-14 0)
(2.9 -1.91261e-14 0)
(2.9 -1.41684e-14 0)
(2.9 -3.49488e-14 0)
(2.9 -5.40004e-14 0)
(2.9 -4.37969e-14 0)
(2.9 2.2522e-14 0)
(2.9 -1.79241e-14 0)
(2.9 6.46478e-14 0)
(2.9 5.47792e-14 0)
(2.9 -5.46396e-14 0)
(2.9 1.24477e-14 0)
(2.9 -4.56e-14 0)
(2.9 -5.56293e-14 0)
(2.9 4.2226e-14 0)
(2.9 -1.33296e-14 0)
(2.9 -1.54276e-14 0)
(2.9 -1.75529e-14 0)
(2.9 6.27317e-14 0)
(2.9 -2.41759e-18 0)
(2.9 4.06527e-14 0)
(2.9 -6.22053e-14 0)
(2.9 -3.17706e-14 0)
(2.9 -2.33428e-14 0)
(2.9 -6.16927e-15 0)
(2.9 -1.86294e-14 0)
(2.9 3.96101e-14 0)
(2.9 -4.47251e-14 0)
(2.9 -1.55114e-14 0)
(2.9 6.22194e-14 0)
(2.9 2.2441e-14 0)
(2.9 1.52538e-14 0)
(2.9 1.81466e-14 0)
(2.9 1.57374e-14 0)
(2.9 4.34979e-15 0)
(2.9 -1.04016e-14 0)
(2.9 5.47713e-15 0)
(2.9 1.44201e-14 0)
(2.9 5.57718e-14 0)
(2.9 3.42338e-14 0)
(2.9 -4.64058e-14 0)
(2.9 -3.17791e-14 0)
(2.9 -2.33661e-14 0)
(2.9 -5.93896e-15 0)
(2.9 4.60646e-14 0)
(2.9 1.4173e-14 0)
(2.9 -1.94639e-14 0)
(2.9 5.26388e-14 0)
(2.9 -1.88461e-14 0)
(2.9 -3.10493e-14 0)
(2.9 1.13981e-14 0)
(2.9 -3.51721e-14 0)
(2.9 -1.96938e-14 0)
(2.9 4.26012e-15 0)
(2.9 -4.30717e-15 0)
(2.9 1.59661e-14 0)
(2.9 9.8195e-15 0)
(2.9 -6.56122e-15 0)
(2.9 5.26935e-14 0)
(2.9 2.78911e-14 0)
(2.9 1.81404e-14 0)
(2.9 -1.11504e-15 0)
(2.9 1.41505e-14 0)
(2.9 -8.70278e-15 0)
(2.9 -5.02603e-14 0)
(2.9 -8.62372e-15 0)
(2.9 2.73421e-15 0)
(2.9 -2.56941e-14 0)
(2.9 2.51556e-14 0)
(2.9 1.97202e-14 0)
(2.9 -5.12921e-14 0)
(2.9 2.76466e-15 0)
(2.9 -5.37628e-15 0)
(2.9 -1.17938e-14 0)
(2.9 2.66478e-15 0)
(2.9 1.87722e-14 0)
(2.9 -5.56208e-15 0)
(2.9 1.36207e-14 0)
(2.9 5.61773e-14 0)
(2.9 -2.35344e-14 0)
(2.9 1.43022e-14 0)
(2.9 -3.46039e-14 0)
(2.9 -5.35071e-16 0)
(2.9 -1.25239e-14 0)
(2.9 3.50063e-14 0)
(2.9 2.69264e-15 0)
(2.9 4.79173e-14 0)
(2.9 8.52469e-15 0)
(2.9 1.38349e-14 0)
(2.9 2.56243e-14 0)
(2.9 2.7398e-14 0)
(2.9 1.78074e-14 0)
(2.9 2.44969e-14 0)
(2.9 7.47858e-14 0)
(2.9 4.09785e-15 0)
(2.9 3.58367e-14 0)
(2.9 -1.26421e-14 0)
(2.9 7.96903e-15 0)
(2.9 5.97683e-14 0)
(2.9 -8.52856e-15 0)
(2.9 -3.19091e-14 0)
(2.9 1.78563e-14 0)
(2.9 -4.39192e-14 0)
(2.9 -5.04704e-14 0)
(2.9 4.70458e-14 0)
(2.9 -1.45632e-14 0)
(2.9 -3.48902e-14 0)
(2.9 2.83139e-14 0)
(2.9 1.77739e-14 0)
(2.9 -4.81203e-14 0)
(2.9 1.96084e-14 0)
(2.9 -5.47252e-14 0)
(2.9 1.21294e-14 0)
(2.9 1.59765e-14 0)
(2.9 2.12629e-14 0)
(2.9 8.33422e-15 0)
(2.9 -3.64795e-14 0)
(2.9 -2.24066e-14 0)
(2.9 1.404e-14 0)
(2.9 1.74535e-14 0)
(2.9 -7.59632e-15 0)
(2.9 -2.3395e-14 0)
(2.9 -3.60919e-14 0)
(2.9 -3.67481e-14 0)
(2.9 -3.731e-14 0)
(2.9 -2.84948e-14 0)
(2.9 -8.12904e-15 0)
(2.9 -2.29397e-14 0)
(2.9 -6.43955e-15 0)
(2.9 4.15196e-16 0)
(2.9 -3.67077e-14 0)
(2.9 -4.34457e-14 0)
(2.9 -4.1556e-15 0)
(2.9 -2.86938e-14 0)
(2.9 -3.23331e-14 0)
(2.9 1.29193e-14 0)
(2.9 -4.09475e-14 0)
(2.9 -2.14389e-15 0)
(2.9 1.22729e-14 0)
(2.9 -2.66087e-14 0)
(2.9 1.87832e-14 0)
(2.9 2.0629e-15 0)
(2.9 -3.07346e-14 0)
(2.9 -2.41807e-14 0)
(2.9 -5.27804e-15 0)
(2.9 -2.70121e-14 0)
(2.9 3.58859e-14 0)
(2.9 6.13274e-14 0)
(2.9 4.32372e-14 0)
(2.9 1.23702e-14 0)
(2.9 -4.34448e-14 0)
(2.9 -3.99421e-15 0)
(2.9 -1.25521e-14 0)
(2.9 2.03095e-14 0)
(2.9 2.64873e-14 0)
(2.9 5.53744e-14 0)
(2.9 -8.92864e-15 0)
(2.9 -2.59537e-14 0)
(2.9 1.47682e-14 0)
(2.9 8.47962e-15 0)
(2.9 3.91589e-14 0)
(2.9 -9.10628e-15 0)
(2.9 -1.30694e-14 0)
(2.9 -7.83117e-15 0)
(2.9 5.98568e-14 0)
(2.9 2.39936e-14 0)
(2.9 1.6393e-14 0)
(2.9 -1.22159e-14 0)
(2.9 4.23493e-14 0)
(2.9 5.87092e-15 0)
(2.9 1.0422e-14 0)
(2.9 -5.95871e-15 0)
(2.9 2.77177e-14 0)
(2.9 2.73623e-14 0)
(2.9 1.81169e-14 0)
(2.9 -1.01399e-14 0)
(2.9 -5.97162e-14 0)
(2.9 1.70209e-14 0)
(2.9 6.78714e-15 0)
(2.9 4.05568e-15 0)
(2.9 -1.37495e-14 0)
(2.9 3.36171e-16 0)
(2.9 -5.12308e-14 0)
(2.9 1.19637e-14 0)
(2.9 1.42974e-14 0)
(2.9 -6.0783e-15 0)
(2.9 3.76252e-15 0)
(2.9 3.20657e-14 0)
(2.9 3.12422e-14 0)
(2.9 4.82062e-15 0)
(2.9 -9.73337e-15 0)
(2.9 -6.18951e-14 0)
(2.9 4.78763e-14 0)
(2.9 1.93068e-14 0)
(2.9 -3.28842e-14 0)
(2.9 -2.72943e-14 0)
(2.9 -6.74685e-15 0)
(2.9 -1.19097e-14 0)
(2.9 2.17547e-14 0)
(2.9 1.21189e-14 0)
(2.9 4.80685e-15 0)
(2.9 1.97629e-15 0)
(2.9 -8.43546e-14 0)
(2.9 -2.80428e-14 0)
(2.9 -3.77584e-14 0)
(2.9 -5.70013e-14 0)
(2.9 -3.31797e-15 0)
(2.9 3.85557e-14 0)
(2.9 1.92685e-14 0)
(2.9 -9.01171e-15 0)
(2.9 -1.32688e-14 0)
(2.9 -3.23475e-14 0)
(2.9 -1.78596e-14 0)
(2.9 -2.2393e-14 0)
(2.9 1.85239e-14 0)
(2.9 -3.48582e-14 0)
(2.9 3.58314e-14 0)
(2.9 3.80299e-14 0)
(2.9 -2.54044e-14 0)
(2.9 1.35371e-14 0)
(2.9 7.25707e-15 0)
(2.9 6.08246e-15 0)
(2.9 3.27599e-14 0)
(2.9 3.46218e-14 0)
(2.9 3.35396e-14 0)
(2.9 7.77925e-15 0)
(2.9 2.59233e-14 0)
(2.9 -1.33419e-14 0)
(2.9 1.15305e-14 0)
(2.9 6.10407e-15 0)
(2.9 4.87867e-15 0)
(2.9 3.27933e-14 0)
(2.9 -2.82924e-14 0)
(2.9 5.47853e-15 0)
(2.9 6.20035e-15 0)
(2.9 -2.12251e-14 0)
(2.9 -1.47106e-14 0)
(2.9 -9.07632e-15 0)
(2.9 1.46623e-14 0)
(2.9 -9.01493e-15 0)
(2.9 2.42691e-14 0)
(2.9 2.62773e-14 0)
(2.9 -2.58385e-14 0)
(2.9 2.26358e-14 0)
(2.9 3.98815e-14 0)
(2.9 6.58938e-14 0)
(2.9 2.23126e-14 0)
(2.9 1.44217e-14 0)
(2.9 2.31716e-14 0)
(2.9 1.81255e-15 0)
(2.9 -1.74276e-14 0)
(2.9 2.1287e-15 0)
(2.9 2.67259e-14 0)
(2.9 7.05868e-14 0)
(2.9 1.17168e-14 0)
(2.9 -1.71132e-14 0)