/*--------------------------------*- C++ -*----------------------------------*\
| =========                 |                                                 |
| \\      /  F ield         | OpenFOAM: The Open Source CFD Toolbox           |
|  \\    /   O peration     | Version:  2412                                  |
|   \\  /    A nd           | Website:  www.openfoam.com                      |
|    \\/     M anipulation  |                                                 |
\*---------------------------------------------------------------------------*/
FoamFile
{
    version     2.0;
    format      ascii;
    arch        "LSB;label=32;scalar=64";
    class       volVectorField;
    location    "0.0039207";
    object      U;
}
// * * * * * * * * * * * * * * * * * * * * * * * * * * * * * * * * * * * * * //

dimensions      [0 1 -1 0 0 0 0];

internalField   nonuniform List<vector> 
100
(
(1.37489e-15 0 0)
(-7.37591e-14 0 0)
(-1.56253e-13 0 0)
(-8.36292e-14 0 0)
(1.66257e-14 0 0)
(9.74833e-14 0 0)
(8.63916e-14 0 0)
(-2.72408e-14 0 0)
(-1.39882e-13 0 0)
(-1.11058e-13 0 0)
(-9.56374e-14 0 0)
(-6.57498e-14 0 0)
(-4.84728e-14 0 0)
(-4.90105e-14 0 0)
(-4.78209e-14 0 0)
(-6.92337e-14 0 0)
(-2.16633e-15 0 0)
(6.43681e-14 0 0)
(4.74869e-14 0 0)
(-6.35522e-15 0 0)
(4.82618e-14 0 0)
(1.11349e-13 0 0)
(1.68123e-13 0 0)
(1.99143e-13 0 0)
(1.00185e-13 0 0)
(1.00884e-13 0 0)
(7.84478e-14 0 0)
(1.26736e-13 0 0)
(1.91564e-13 0 0)
(1.4133e-13 0 0)
(1.93226e-12 0 0)
(1.07689e-09 0 0)
(4.57194e-07 0 0)
(0.000120822 0 0)
(0.0148062 0 0)
(0.59062 0 0)
(6.20718 0 0)
(22.7304 0 0)
(45.4382 0 0)
(68.0858 0 0)
(88.6833 0 0)
(109.67 0 0)
(128.077 0 0)
(150.81 0 0)
(168.358 0 0)
(185.649 0 0)
(210.075 0 0)
(226.494 0 0)
(242.408 0 0)
(264.289 0 0)
(285.551 0 0)
(290.128 0 0)
(279.473 0 0)
(277.394 0 0)
(286.292 0 0)
(287.174 0 0)
(283.086 0 0)
(277.029 0 0)
(276.679 0 0)
(279.931 0 0)
(285.035 0 0)
(286.56 0 0)
(279.719 0 0)
(274.289 0 0)
(274.399 0 0)
(276.288 0 0)
(291.522 0 0)
(296.27 0 0)
(246.641 0 0)
(51.584 0 0)
(0.366931 0 0)
(0.000169506 0 0)
(1.73201e-08 0 0)
(1.90871e-12 0 0)
(-1.47586e-13 0 0)
(7.69295e-14 0 0)
(-1.38978e-14 0 0)
(-2.75759e-14 0 0)
(-6.92805e-14 0 0)
(-1.62833e-13 0 0)
(-1.25362e-13 0 0)
(-3.22827e-15 0 0)
(6.13265e-14 0 0)
(-1.33524e-13 0 0)
(-1.70015e-13 0 0)
(-2.03257e-13 0 0)
(-2.19741e-13 0 0)
(-1.27335e-13 0 0)
(-1.95521e-13 0 0)
(-1.9937e-13 0 0)
(-4.33118e-14 0 0)
(-7.66777e-14 0 0)
(-1.94834e-13 0 0)
(-2.16703e-13 0 0)
(-3.02941e-13 0 0)
(-1.74788e-13 0 0)
(-3.39671e-14 0 0)
(-3.4418e-14 0 0)
(-7.75873e-14 0 0)
(-1.27881e-13 0 0)
)
;

boundaryField
{
    sides
    {
        type            fixedValue;
        value           uniform (0 0 0);
    }
    empty
    {
        type            empty;
    }
}


// ************************************************************************* //
