/*--------------------------------*- C++ -*----------------------------------*\
| =========                 |                                                 |
| \\      /  F ield         | OpenFOAM: The Open Source CFD Toolbox           |
|  \\    /   O peration     | Version:  2412                                  |
|   \\  /    A nd           | Website:  www.openfoam.com                      |
|    \\/     M anipulation  |                                                 |
\*---------------------------------------------------------------------------*/
FoamFile
{
    version     2.0;
    format      ascii;
    arch        "LSB;label=32;scalar=64";
    class       volScalarField;
    location    "0.0433742";
    object      rhoY_Y_N2;
}
// * * * * * * * * * * * * * * * * * * * * * * * * * * * * * * * * * * * * * //

dimensions      [1 -3 0 0 0 0 0];

internalField   nonuniform List<scalar> 
100
(
0.22495
0.225052
0.225191
0.225355
0.225507
0.225624
0.225693
0.225616
0.225143
0.225575
0.261618
0.485596
0.5572
0.541746
0.52144
0.523914
0.534848
0.564402
0.578539
0.583643
0.588959
0.591575
0.574557
0.552711
0.550904
0.555266
0.560918
0.578942
0.600832
0.60883
0.61372
0.616557
0.611176
0.607149
0.611106
0.617716
0.630206
0.639107
0.644245
0.641137
0.63317
0.634858
0.641143
0.655583
0.668694
0.675726
0.676727
0.667087
0.664765
0.930451
0.739417
0.759625
0.765971
0.767524
0.762845
0.740986
0.726437
0.726625
0.732322
0.744311
0.762543
0.77394
0.781028
0.786297
0.786909
0.789025
0.793451
0.798729
0.798578
0.797762
0.801741
0.808902
0.819259
0.826123
0.831228
0.828076
0.825733
0.831807
0.847465
0.887149
0.912659
0.9297
0.937416
0.919433
0.858799
0.753162
0.572654
0.306582
0.0600088
0.015852
-0.00366825
-0.0010581
0.000373384
-0.000112933
6.52678e-07
-2.83889e-06
-1.28953e-07
-4.33778e-08
-4.00737e-09
-2.01132e-10
)
;

boundaryField
{
    sides
    {
        type            calculated;
        value           nonuniform List<scalar> 2(0 1.12308);
    }
    empty
    {
        type            empty;
    }
}


// ************************************************************************* //
