/*--------------------------------*- C++ -*----------------------------------*\
| =========                 |                                                 |
| \\      /  F ield         | OpenFOAM: The Open Source CFD Toolbox           |
|  \\    /   O peration     | Version:  2412                                  |
|   \\  /    A nd           | Website:  www.openfoam.com                      |
|    \\/     M anipulation  |                                                 |
\*---------------------------------------------------------------------------*/
FoamFile
{
    version     2.0;
    format      ascii;
    arch        "LSB;label=32;scalar=64";
    class       volVectorField;
    location    "0.0433742";
    object      U;
}
// * * * * * * * * * * * * * * * * * * * * * * * * * * * * * * * * * * * * * //

dimensions      [0 1 -1 0 0 0 0];

internalField   nonuniform List<vector> 
100
(
(1.60446 0 0)
(4.70783 0 0)
(7.82808 0 0)
(10.9317 0 0)
(14.007 0 0)
(17.0239 0 0)
(19.9521 0 0)
(22.8856 0 0)
(26.2492 0 0)
(28.9088 0 0)
(-13.8438 0 0)
(-187.676 0 0)
(-231.725 0 0)
(-224.531 0 0)
(-209.79 0 0)
(-206.885 0 0)
(-209.259 0 0)
(-221.013 0 0)
(-224.845 0 0)
(-223.444 0 0)
(-221.341 0 0)
(-218.211 0 0)
(-205.345 0 0)
(-189.014 0 0)
(-183.317 0 0)
(-181.553 0 0)
(-181.135 0 0)
(-186.845 0 0)
(-194.333 0 0)
(-194.94 0 0)
(-193.437 0 0)
(-190.721 0 0)
(-184.276 0 0)
(-177.864 0 0)
(-175.155 0 0)
(-174.626 0 0)
(-176.378 0 0)
(-176.641 0 0)
(-174.797 0 0)
(-169.39 0 0)
(-161.456 0 0)
(-157.685 0 0)
(-156.86 0 0)
(-159.524 0 0)
(-161.531 0 0)
(-160.343 0 0)
(-156.073 0 0)
(-147.709 0 0)
(-141.893 0 0)
(-139.862 0 0)
(-142.072 0 0)
(-149.423 0 0)
(-152.069 0 0)
(-150.732 0 0)
(-145.601 0 0)
(-133.335 0 0)
(-123.176 0 0)
(-119.053 0 0)
(-118.041 0 0)
(-119.754 0 0)
(-123.698 0 0)
(-125.027 0 0)
(-124.134 0 0)
(-122.284 0 0)
(-118.853 0 0)
(-115.198 0 0)
(-113.207 0 0)
(-110.507 0 0)
(-107.547 0 0)
(-102.629 0 0)
(-100.887 0 0)
(-100.01 0 0)
(-100.066 0 0)
(-100.161 0 0)
(-95.8442 0 0)
(-92.4399 0 0)
(-86.5803 0 0)
(-85.9654 0 0)
(-87.8057 0 0)
(-97.1543 0 0)
(-103.175 0 0)
(-101.543 0 0)
(-99.2364 0 0)
(-89.7007 0 0)
(-70.1464 0 0)
(-54.9906 0 0)
(-47.9956 0 0)
(-42.9101 0 0)
(-38.9835 0 0)
(-35.7763 0 0)
(-33.0638 0 0)
(-30.92 0 0)
(-28.4532 0 0)
(-26.3058 0 0)
(-22.6264 0 0)
(-17.8216 0 0)
(-13.0915 0 0)
(-8.53306 0 0)
(-4.4397 0 0)
(-2.50558 0 0)
)
;

boundaryField
{
    sides
    {
        type            fixedValue;
        value           uniform (0 0 0);
    }
    empty
    {
        type            empty;
    }
}


// ************************************************************************* //
