/*--------------------------------*- C++ -*----------------------------------*\
| =========                 |                                                 |
| \\      /  F ield         | OpenFOAM: The Open Source CFD Toolbox           |
|  \\    /   O peration     | Version:  2412                                  |
|   \\  /    A nd           | Website:  www.openfoam.com                      |
|    \\/     M anipulation  |                                                 |
\*---------------------------------------------------------------------------*/
FoamFile
{
    version     2.0;
    format      ascii;
    arch        "LSB;label=32;scalar=64";
    class       volScalarField;
    location    "0.008381";
    object      p;
}
// * * * * * * * * * * * * * * * * * * * * * * * * * * * * * * * * * * * * * //

dimensions      [1 -1 -2 0 0 0 0];

internalField   nonuniform List<scalar> 
100
(
100000
100000
100000
100000
100000
100000
100000
100000
100000
100000
100000
100000
100000
100000
100000
100000
100000
100000
100000
100000
99995.4
99797.9
98044.7
93579.2
88388.2
84032.6
80463.8
77321.1
74387.3
71586.7
68860.2
66274.3
63636.4
61379.2
58603.2
57027.1
53732.8
53039.7
49489.8
48898.1
46053.5
44966.4
42673.9
41254.6
39496.2
38138.6
36585.1
34727.8
33445.5
32902.9
32308.8
31802.2
31046.9
31194.1
32253.7
32622.5
31991.1
30948.9
31120
32232.2
32563.7
32161.7
31221.3
31378.1
31897
32555.6
32301.1
32038
31311.9
31350.3
31571.9
31778.7
32125.3
32333.6
31928.5
31678.9
31770.3
31929.8
32212
32269
32157.8
31638.1
31391.8
31400.5
31523.5
31883
32159.2
32651.9
33603
32496.1
20513.1
10402.7
10000.3
10000
10000
10000
10000
10000
10000
10000
)
;

boundaryField
{
    sides
    {
        type            zeroGradient;
    }
    empty
    {
        type            empty;
    }
}


// ************************************************************************* //
