/*--------------------------------*- C++ -*----------------------------------*\
| =========                 |                                                 |
| \\      /  F ield         | OpenFOAM: The Open Source CFD Toolbox           |
|  \\    /   O peration     | Version:  2412                                  |
|   \\  /    A nd           | Website:  www.openfoam.com                      |
|    \\/     M anipulation  |                                                 |
\*---------------------------------------------------------------------------*/
FoamFile
{
    version     2.0;
    format      ascii;
    arch        "LSB;label=32;scalar=64";
    class       volScalarField;
    location    "0.0486288";
    object      rho;
}
// * * * * * * * * * * * * * * * * * * * * * * * * * * * * * * * * * * * * * //

dimensions      [1 -3 0 0 0 0 0];

internalField   nonuniform List<scalar> 
100
(
0.87457
0.968583
1.01075
1.08678
1.15437
1.04284
0.641132
0.499352
0.506408
0.521323
0.526647
0.530351
0.527396
0.515337
0.513546
0.516674
0.524674
0.541332
0.548697
0.552085
0.549551
0.534981
0.531728
0.535017
0.544038
0.574207
0.591782
0.596916
0.599773
0.584713
0.558973
0.553459
0.55732
0.561681
0.573185
0.599373
0.613652
0.619032
0.623102
0.622655
0.622283
0.625388
0.628693
0.628656
0.626548
0.628851
0.63336
0.641674
0.653365
0.660532
0.66521
0.661552
0.655926
0.658399
0.665136
0.699342
0.736937
0.747673
0.753631
0.754109
0.730492
0.688325
0.66589
0.660487
0.660669
0.661661
0.662147
0.662662
0.664813
0.669518
0.674769
0.681303
0.687594
0.693877
0.695838
0.692003
0.688194
0.684743
0.686659
0.686505
0.687611
0.687632
0.685353
0.679228
0.663294
0.641156
0.61659
0.59522
0.581142
0.57303
0.568983
0.567433
0.566769
0.566589
0.567205
0.567918
0.569455
0.570581
0.571489
0.571844
)
;

boundaryField
{
    sides
    {
        type            calculated;
        value           nonuniform List<scalar> 2(0.571844 0.87457);
    }
    empty
    {
        type            empty;
    }
}


// ************************************************************************* //
