/*--------------------------------*- C++ -*----------------------------------*\
| =========                 |                                                 |
| \\      /  F ield         | OpenFOAM: The Open Source CFD Toolbox           |
|  \\    /   O peration     | Version:  2412                                  |
|   \\  /    A nd           | Website:  www.openfoam.com                      |
|    \\/     M anipulation  |                                                 |
\*---------------------------------------------------------------------------*/
FoamFile
{
    version     2.0;
    format      ascii;
    arch        "LSB;label=32;scalar=64";
    class       volVectorField;
    location    "0.0025";
    object      U;
}
// * * * * * * * * * * * * * * * * * * * * * * * * * * * * * * * * * * * * * //

dimensions      [0 1 -1 0 0 0 0];

internalField   nonuniform List<vector> 
1800
(
(2.9 2.00055e-14 0)
(2.9 3.8106e-14 0)
(2.9 3.57517e-15 0)
(2.9 3.54762e-16 0)
(2.9 3.61683e-17 0)
(2.9 3.69921e-18 0)
(2.9 3.75632e-19 0)
(2.9 3.77438e-20 0)
(2.9 3.75226e-21 0)
(2.9 3.69472e-22 0)
(2.9 3.60866e-23 0)
(2.9 3.50119e-24 0)
(2.9 -1.29594e-14 0)
(2.9 -2.54239e-14 0)
(2.9 -3.88662e-14 0)
(2.9 -3.67009e-15 0)
(2.9 -3.65724e-16 0)
(2.9 -3.73684e-17 0)
(2.9 -3.82575e-18 0)
(2.9 -3.88618e-19 0)
(2.9 -3.90502e-20 0)
(2.9 -3.88176e-21 0)
(2.9 -3.82167e-22 0)
(2.9 -3.73207e-23 0)
(2.9 -3.6204e-24 0)
(2.9 -3.4933e-25 0)
(2.9 -3.35634e-26 0)
(2.9 -3.21396e-27 0)
(2.9 -3.06954e-28 0)
(2.9 -2.92565e-29 0)
(2.9 -2.78409e-30 0)
(2.9 -2.64617e-31 0)
(2.9 -2.51273e-32 0)
(2.9 -2.38432e-33 0)
(2.9 -2.26124e-34 0)
(2.9 -2.14362e-35 0)
(2.9 -2.0315e-36 0)
(2.9 -1.92478e-37 0)
(2.9 -1.82334e-38 0)
(2.9 -1.72702e-39 0)
(2.9 -1.63562e-40 0)
(2.9 -1.54894e-41 0)
(2.9 -1.46678e-42 0)
(2.9 -1.38891e-43 0)
(2.9 -1.31514e-44 0)
(2.9 -1.24526e-45 0)
(2.9 -1.17907e-46 0)
(2.9 -1.11638e-47 0)
(2.9 -1.05702e-48 0)
(2.9 -1.0008e-49 0)
(2.9 -9.47574e-51 0)
(2.9 -8.97173e-52 0)
(2.9 -8.4945e-53 0)
(2.9 -8.04264e-54 0)
(2.9 -7.6148e-55 0)
(2.9 -7.20972e-56 0)
(2.9 -6.82618e-57 0)
(2.9 -6.46304e-58 0)
(2.9 -6.11921e-59 0)
(2.9 -6.39959e-60 0)
(2.9 1.78614e-14 0)
(2.9 2.1692e-14 0)
(2.9 4.46787e-15 0)
(2.9 7.2069e-16 0)
(2.9 1.04197e-16 0)
(2.9 1.40747e-17 0)
(2.9 1.8108e-18 0)
(2.9 2.24433e-19 0)
(2.9 2.70023e-20 0)
(2.9 3.17107e-21 0)
(2.9 3.65009e-22 0)
(2.9 4.13133e-23 0)
(2.9 -1.23646e-14 0)
(2.9 -2.56415e-14 0)
(2.9 -2.32114e-14 0)
(2.9 -4.71912e-15 0)
(2.9 -7.57954e-16 0)
(2.9 -1.0932e-16 0)
(2.9 -1.4741e-17 0)
(2.9 -1.89391e-18 0)
(2.9 -2.34466e-19 0)
(2.9 -2.81822e-20 0)
(2.9 -3.30691e-21 0)
(2.9 -3.80377e-22 0)
(2.9 -4.30263e-23 0)
(2.9 -4.79817e-24 0)
(2.9 -5.28583e-25 0)
(2.9 -5.76179e-26 0)
(2.9 -6.22285e-27 0)
(2.9 -6.66641e-28 0)
(2.9 -7.09037e-29 0)
(2.9 -7.49305e-30 0)
(2.9 -7.87319e-31 0)
(2.9 -8.22984e-32 0)
(2.9 -8.56235e-33 0)
(2.9 -8.87035e-34 0)
(2.9 -9.15366e-35 0)
(2.9 -9.4123e-36 0)
(2.9 -9.64645e-37 0)
(2.9 -9.85645e-38 0)
(2.9 -1.00427e-38 0)
(2.9 -1.02059e-39 0)
(2.9 -1.03464e-40 0)
(2.9 -1.04652e-41 0)
(2.9 -1.05628e-42 0)
(2.9 -1.06402e-43 0)
(2.9 -1.06981e-44 0)
(2.9 -1.07374e-45 0)
(2.9 -1.0759e-46 0)
(2.9 -1.07638e-47 0)
(2.9 -1.07526e-48 0)
(2.9 -1.07263e-49 0)
(2.9 -1.06858e-50 0)
(2.9 -1.0632e-51 0)
(2.9 -1.05658e-52 0)
(2.9 -1.04879e-53 0)
(2.9 -1.03992e-54 0)
(2.9 -1.03005e-55 0)
(2.9 -1.01927e-56 0)
(2.9 -1.11797e-57 0)
(2.9 1.06036e-14 0)
(2.9 1.19865e-14 0)
(2.9 3.52977e-15 0)
(2.9 7.41665e-16 0)
(2.9 1.31692e-16 0)
(2.9 2.10527e-17 0)
(2.9 3.12709e-18 0)
(2.9 4.39614e-19 0)
(2.9 5.91972e-20 0)
(2.9 7.69925e-21 0)
(2.9 9.73101e-22 0)
(2.9 1.20069e-22 0)
(2.9 -7.78788e-15 0)
(2.9 -1.69232e-14 0)
(2.9 -1.35208e-14 0)
(2.9 -3.8341e-15 0)
(2.9 -7.94527e-16 0)
(2.9 -1.40053e-16 0)
(2.9 -2.22863e-17 0)
(2.9 -3.29962e-18 0)
(2.9 -4.6274e-19 0)
(2.9 -6.21923e-20 0)
(2.9 -8.07629e-21 0)
(2.9 -1.01945e-21 0)
(2.9 -1.25651e-22 0)
(2.9 -1.51759e-23 0)
(2.9 -1.80113e-24 0)
(2.9 -2.10538e-25 0)
(2.9 -2.42839e-26 0)
(2.9 -2.76807e-27 0)
(2.9 -3.1223e-28 0)
(2.9 -3.48887e-29 0)
(2.9 -3.8656e-30 0)
(2.9 -4.25031e-31 0)
(2.9 -4.64087e-32 0)
(2.9 -5.03521e-33 0)
(2.9 -5.43134e-34 0)
(2.9 -5.82736e-35 0)
(2.9 -6.22146e-36 0)
(2.9 -6.61196e-37 0)
(2.9 -6.99726e-38 0)
(2.9 -7.3759e-39 0)
(2.9 -7.74652e-40 0)
(2.9 -8.10788e-41 0)
(2.9 -8.45886e-42 0)
(2.9 -8.79846e-43 0)
(2.9 -9.12577e-44 0)
(2.9 -9.44e-45 0)
(2.9 -9.74048e-46 0)
(2.9 -1.00266e-46 0)
(2.9 -1.02979e-47 0)
(2.9 -1.0554e-48 0)
(2.9 -1.07945e-49 0)
(2.9 -1.10192e-50 0)
(2.9 -1.1228e-51 0)
(2.9 -1.14208e-52 0)
(2.9 -1.15976e-53 0)
(2.9 -1.17584e-54 0)
(2.9 -1.19034e-55 0)
(2.9 -1.33822e-56 0)
(2.9 5.46406e-15 0)
(2.9 6.38915e-15 0)
(2.9 2.35934e-15 0)
(2.9 5.99647e-16 0)
(2.9 1.24821e-16 0)
(2.9 2.28635e-17 0)
(2.9 3.8261e-18 0)
(2.9 5.9825e-19 0)
(2.9 8.86969e-20 0)
(2.9 1.25975e-20 0)
(2.9 1.72684e-21 0)
(2.9 2.29757e-22 0)
(2.9 -4.23993e-15 0)
(2.9 -9.6238e-15 0)
(2.9 -7.59417e-15 0)
(2.9 -2.63703e-15 0)
(2.9 -6.54666e-16 0)
(2.9 -1.3461e-16 0)
(2.9 -2.44701e-17 0)
(2.9 -4.07377e-18 0)
(2.9 -6.34562e-19 0)
(2.9 -9.38071e-20 0)
(2.9 -1.32925e-20 0)
(2.9 -1.81868e-21 0)
(2.9 -2.41597e-22 0)
(2.9 -3.12955e-23 0)
(2.9 -3.96657e-24 0)
(2.9 -4.93283e-25 0)
(2.9 -6.03271e-26 0)
(2.9 -7.26918e-27 0)
(2.9 -8.64384e-28 0)
(2.9 -1.01569e-28 0)
(2.9 -1.18074e-29 0)
(2.9 -1.35931e-30 0)
(2.9 -1.55105e-31 0)
(2.9 -1.75553e-32 0)
(2.9 -1.97221e-33 0)
(2.9 -2.20047e-34 0)
(2.9 -2.43962e-35 0)
(2.9 -2.68892e-36 0)
(2.9 -2.94753e-37 0)
(2.9 -3.21462e-38 0)
(2.9 -3.48928e-39 0)
(2.9 -3.77061e-40 0)
(2.9 -4.05766e-41 0)
(2.9 -4.34949e-42 0)
(2.9 -4.64514e-43 0)
(2.9 -4.94367e-44 0)
(2.9 -5.24413e-45 0)
(2.9 -5.54559e-46 0)
(2.9 -5.84715e-47 0)
(2.9 -6.14792e-48 0)
(2.9 -6.44705e-49 0)
(2.9 -6.74369e-50 0)
(2.9 -7.03707e-51 0)
(2.9 -7.32642e-52 0)
(2.9 -7.61102e-53 0)
(2.9 -7.8902e-54 0)
(2.9 -8.1634e-55 0)
(2.9 -9.39728e-56 0)
(2.9 2.64374e-15 0)
(2.9 3.29615e-15 0)
(2.9 1.43777e-15 0)
(2.9 4.24715e-16 0)
(2.9 1.00836e-16 0)
(2.9 2.07439e-17 0)
(2.9 3.85116e-18 0)
(2.9 6.61503e-19 0)
(2.9 1.06876e-19 0)
(2.9 1.64312e-20 0)
(2.9 2.42432e-21 0)
(2.9 3.45495e-22 0)
(2.9 -2.14111e-15 0)
(2.9 -5.0652e-15 0)
(2.9 -4.11758e-15 0)
(2.9 -1.65362e-15 0)
(2.9 -4.72716e-16 0)
(2.9 -1.10312e-16 0)
(2.9 -2.24535e-17 0)
(2.9 -4.13868e-18 0)
(2.9 -7.07198e-19 0)
(2.9 -1.13808e-19 0)
(2.9 -1.74425e-20 0)
(2.9 -2.56707e-21 0)
(2.9 -3.65078e-22 0)
(2.9 -5.0418e-23 0)
(2.9 -6.78791e-24 0)
(2.9 -8.93751e-25 0)
(2.9 -1.15388e-25 0)
(2.9 -1.46392e-26 0)
(2.9 -1.82844e-27 0)
(2.9 -2.2518e-28 0)
(2.9 -2.73808e-29 0)
(2.9 -3.29105e-30 0)
(2.9 -3.91409e-31 0)
(2.9 -4.61019e-32 0)
(2.9 -5.38191e-33 0)
(2.9 -6.23136e-34 0)
(2.9 -7.16017e-35 0)
(2.9 -8.16951e-36 0)
(2.9 -9.26005e-37 0)
(2.9 -1.0432e-37 0)
(2.9 -1.16851e-38 0)
(2.9 -1.30185e-39 0)
(2.9 -1.44311e-40 0)
(2.9 -1.59214e-41 0)
(2.9 -1.74871e-42 0)
(2.9 -1.9126e-43 0)
(2.9 -2.08351e-44 0)
(2.9 -2.26115e-45 0)
(2.9 -2.44516e-46 0)
(2.9 -2.63517e-47 0)
(2.9 -2.83079e-48 0)
(2.9 -3.03159e-49 0)
(2.9 -3.23713e-50 0)
(2.9 -3.44697e-51 0)
(2.9 -3.66061e-52 0)
(2.9 -3.87759e-53 0)
(2.9 -4.09748e-54 0)
(2.9 -4.82659e-55 0)
(2.9 1.19425e-15 0)
(2.9 1.64916e-15 0)
(2.9 8.2386e-16 0)
(2.9 2.75941e-16 0)
(2.9 7.33493e-17 0)
(2.9 1.67063e-17 0)
(2.9 3.40198e-18 0)
(2.9 6.35974e-19 0)
(2.9 1.11099e-19 0)
(2.9 1.83653e-20 0)
(2.9 2.89957e-21 0)
(2.9 4.40335e-22 0)
(2.9 -1.0326e-15 0)
(2.9 -2.5414e-15 0)
(2.9 -2.16476e-15 0)
(2.9 -9.75332e-16 0)
(2.9 -3.13226e-16 0)
(2.9 -8.14257e-17 0)
(2.9 -1.82936e-17 0)
(2.9 -3.69094e-18 0)
(2.9 -6.85413e-19 0)
(2.9 -1.19134e-19 0)
(2.9 -1.96163e-20 0)
(2.9 -3.08728e-21 0)
(2.9 -4.6762e-22 0)
(2.9 -6.85337e-23 0)
(2.9 -9.76064e-24 0)
(2.9 -1.35562e-24 0)
(2.9 -1.84137e-25 0)
(2.9 -2.45209e-26 0)
(2.9 -3.20782e-27 0)
(2.9 -4.12971e-28 0)
(2.9 -5.2398e-29 0)
(2.9 -6.56086e-30 0)
(2.9 -8.11609e-31 0)
(2.9 -9.92901e-32 0)
(2.9 -1.20231e-32 0)
(2.9 -1.44218e-33 0)
(2.9 -1.71479e-34 0)
(2.9 -2.02238e-35 0)
(2.9 -2.36709e-36 0)
(2.9 -2.75097e-37 0)
(2.9 -3.17595e-38 0)
(2.9 -3.64381e-39 0)
(2.9 -4.15619e-40 0)
(2.9 -4.71457e-41 0)
(2.9 -5.32024e-42 0)
(2.9 -5.9743e-43 0)
(2.9 -6.67767e-44 0)
(2.9 -7.43107e-45 0)
(2.9 -8.23499e-46 0)
(2.9 -9.08974e-47 0)
(2.9 -9.9954e-48 0)
(2.9 -1.09518e-48 0)
(2.9 -1.19587e-49 0)
(2.9 -1.30155e-50 0)
(2.9 -1.41215e-51 0)
(2.9 -1.52757e-52 0)
(2.9 -1.64772e-53 0)
(2.9 -1.98502e-54 0)
(2.9 4.94488e-16 0)
(2.9 8.01814e-16 0)
(2.9 4.51133e-16 0)
(2.9 1.68514e-16 0)
(2.9 4.94811e-17 0)
(2.9 1.23431e-17 0)
(2.9 2.73252e-18 0)
(2.9 5.51832e-19 0)
(2.9 1.03573e-19 0)
(2.9 1.83085e-20 0)
(2.9 3.07832e-21 0)
(2.9 4.96035e-22 0)
(2.9 -4.82753e-16 0)
(2.9 -1.23411e-15 0)
(2.9 -1.10867e-15 0)
(2.9 -5.50128e-16 0)
(2.9 -1.95169e-16 0)
(2.9 -5.57586e-17 0)
(2.9 -1.36768e-17 0)
(2.9 -2.99365e-18 0)
(2.9 -5.99659e-19 0)
(2.9 -1.11861e-19 0)
(2.9 -1.96791e-20 0)
(2.9 -3.29609e-21 0)
(2.9 -5.29454e-22 0)
(2.9 -8.20334e-23 0)
(2.9 -1.23167e-23 0)
(2.9 -1.79879e-24 0)
(2.9 -2.56335e-25 0)
(2.9 -3.57365e-26 0)
(2.9 -4.88494e-27 0)
(2.9 -6.55952e-28 0)
(2.9 -8.66685e-29 0)
(2.9 -1.12835e-29 0)
(2.9 -1.44929e-30 0)
(2.9 -1.83853e-31 0)
(2.9 -2.30572e-32 0)
(2.9 -2.86114e-33 0)
(2.9 -3.51557e-34 0)
(2.9 -4.2803e-35 0)
(2.9 -5.16705e-36 0)
(2.9 -6.18787e-37 0)
(2.9 -7.35512e-38 0)
(2.9 -8.68132e-39 0)
(2.9 -1.01791e-39 0)
(2.9 -1.18613e-40 0)
(2.9 -1.37403e-41 0)
(2.9 -1.58288e-42 0)
(2.9 -1.8139e-43 0)
(2.9 -2.06828e-44 0)
(2.9 -2.34719e-45 0)
(2.9 -2.65173e-46 0)
(2.9 -2.98296e-47 0)
(2.9 -3.34188e-48 0)
(2.9 -3.72941e-49 0)
(2.9 -4.1464e-50 0)
(2.9 -4.59363e-51 0)
(2.9 -5.07178e-52 0)
(2.9 -5.58157e-53 0)
(2.9 -6.87357e-54 0)
(2.9 2.15401e-16 0)
(2.9 3.82441e-16 0)
(2.9 2.38648e-16 0)
(2.9 9.81862e-17 0)
(2.9 3.15203e-17 0)
(2.9 8.53789e-18 0)
(2.9 2.04009e-18 0)
(2.9 4.42348e-19 0)
(2.9 8.87297e-20 0)
(2.9 1.66949e-20 0)
(2.9 2.97712e-21 0)
(2.9 5.07178e-22 0)
(2.9 -2.20687e-16 0)
(2.9 -5.85149e-16 0)
(2.9 -5.55387e-16 0)
(2.9 -2.9976e-16 0)
(2.9 -1.16057e-16 0)
(2.9 -3.60652e-17 0)
(2.9 -9.57542e-18 0)
(2.9 -2.25738e-18 0)
(2.9 -4.8475e-19 0)
(2.9 -9.6531e-20 0)
(2.9 -1.80602e-20 0)
(2.9 -3.20604e-21 0)
(2.9 -5.44153e-22 0)
(2.9 -8.88401e-23 0)
(2.9 -1.40202e-23 0)
(2.9 -2.1473e-24 0)
(2.9 -3.20237e-25 0)
(2.9 -4.6634e-26 0)
(2.9 -6.64685e-27 0)
(2.9 -9.29167e-28 0)
(2.9 -1.27614e-28 0)
(2.9 -1.72461e-29 0)
(2.9 -2.29643e-30 0)
(2.9 -3.01644e-31 0)
(2.9 -3.91262e-32 0)
(2.9 -5.01619e-33 0)
(2.9 -6.36169e-34 0)
(2.9 -7.98706e-35 0)
(2.9 -9.9336e-36 0)
(2.9 -1.2246e-36 0)
(2.9 -1.49723e-37 0)
(2.9 -1.81637e-38 0)
(2.9 -2.18746e-39 0)
(2.9 -2.61625e-40 0)
(2.9 -3.10874e-41 0)
(2.9 -3.6712e-42 0)
(2.9 -4.31016e-43 0)
(2.9 -5.03232e-44 0)
(2.9 -5.84458e-45 0)
(2.9 -6.75399e-46 0)
(2.9 -7.7677e-47 0)
(2.9 -8.89296e-48 0)
(2.9 -1.0137e-48 0)
(2.9 -1.15073e-49 0)
(2.9 -1.30109e-50 0)
(2.9 -1.4655e-51 0)
(2.9 -1.64473e-52 0)
(2.9 -2.06954e-53 0)
(2.9 9.2264e-17 0)
(2.9 1.79468e-16 0)
(2.9 1.22832e-16 0)
(2.9 5.51259e-17 0)
(2.9 1.91893e-17 0)
(2.9 5.60482e-18 0)
(2.9 1.43689e-18 0)
(2.9 3.32784e-19 0)
(2.9 7.1019e-20 0)
(2.9 1.41666e-20 0)
(2.9 2.66987e-21 0)
(2.9 4.79336e-22 0)
(2.9 -9.9191e-17 0)
(2.9 -2.72426e-16 0)
(2.9 -2.73054e-16 0)
(2.9 -1.58867e-16 0)
(2.9 -6.65079e-17 0)
(2.9 -2.2298e-17 0)
(2.9 -6.3635e-18 0)
(2.9 -1.60608e-18 0)
(2.9 -3.67822e-19 0)
(2.9 -7.78382e-20 0)
(2.9 -1.54256e-20 0)
(2.9 -2.89196e-21 0)
(2.9 -5.1699e-22 0)
(2.9 -8.86838e-23 0)
(2.9 -1.46721e-23 0)
(2.9 -2.35099e-24 0)
(2.9 -3.66127e-25 0)
(2.9 -5.55794e-26 0)
(2.9 -8.2449e-27 0)
(2.9 -1.19779e-27 0)
(2.9 -1.70727e-28 0)
(2.9 -2.39143e-29 0)
(2.9 -3.29657e-30 0)
(2.9 -4.47776e-31 0)
(2.9 -5.99977e-32 0)
(2.9 -7.93804e-33 0)
(2.9 -1.03796e-33 0)
(2.9 -1.34241e-34 0)
(2.9 -1.71843e-35 0)
(2.9 -2.17876e-36 0)
(2.9 -2.73759e-37 0)
(2.9 -3.41071e-38 0)
(2.9 -4.21552e-39 0)
(2.9 -5.17109e-40 0)
(2.9 -6.29819e-41 0)
(2.9 -7.61935e-42 0)
(2.9 -9.15884e-43 0)
(2.9 -1.09427e-43 0)
(2.9 -1.29986e-44 0)
(2.9 -1.53561e-45 0)
(2.9 -1.80464e-46 0)
(2.9 -2.11022e-47 0)
(2.9 -2.45579e-48 0)
(2.9 -2.84492e-49 0)
(2.9 -3.28135e-50 0)
(2.9 -3.76892e-51 0)
(2.9 -4.31172e-52 0)
(2.9 -5.54116e-53 0)
(2.9 3.90145e-17 0)
(2.9 8.30561e-17 0)
(2.9 6.18211e-17 0)
(2.9 3.00308e-17 0)
(2.9 1.12593e-17 0)
(2.9 3.52557e-18 0)
(2.9 9.64846e-19 0)
(2.9 2.37629e-19 0)
(2.9 5.3743e-20 0)
(2.9 1.13261e-20 0)
(2.9 2.24888e-21 0)
(2.9 4.24308e-22 0)
(2.9 -4.39958e-17 0)
(2.9 -1.2501e-16 0)
(2.9 -1.32116e-16 0)
(2.9 -8.22903e-17 0)
(2.9 -3.69803e-17 0)
(2.9 -1.32885e-17 0)
(2.9 -4.05278e-18 0)
(2.9 -1.08957e-18 0)
(2.9 -2.64942e-19 0)
(2.9 -5.93485e-20 0)
(2.9 -1.24147e-20 0)
(2.9 -2.45039e-21 0)
(2.9 -4.60085e-22 0)
(2.9 -8.27114e-23 0)
(2.9 -1.43122e-23 0)
(2.9 -2.39417e-24 0)
(2.9 -3.88584e-25 0)
(2.9 -6.13807e-26 0)
(2.9 -9.46089e-27 0)
(2.9 -1.42614e-27 0)
(2.9 -2.10655e-28 0)
(2.9 -3.05422e-29 0)
(2.9 -4.35306e-30 0)
(2.9 -6.10704e-31 0)
(2.9 -8.4434e-32 0)
(2.9 -1.15162e-32 0)
(2.9 -1.551e-33 0)
(2.9 -2.06439e-34 0)
(2.9 -2.71757e-35 0)
(2.9 -3.5406e-36 0)
(2.9 -4.56828e-37 0)
(2.9 -5.84059e-38 0)
(2.9 -7.40313e-39 0)
(2.9 -9.30758e-40 0)
(2.9 -1.16121e-40 0)
(2.9 -1.43819e-41 0)
(2.9 -1.76894e-42 0)
(2.9 -2.16149e-43 0)
(2.9 -2.62466e-44 0)
(2.9 -3.16815e-45 0)
(2.9 -3.80251e-46 0)
(2.9 -4.53919e-47 0)
(2.9 -5.39057e-48 0)
(2.9 -6.36997e-49 0)
(2.9 -7.49166e-50 0)
(2.9 -8.77088e-51 0)
(2.9 -1.02242e-51 0)
(2.9 -1.34147e-52 0)
(2.9 1.63316e-17 0)
(2.9 3.79812e-17 0)
(2.9 3.05376e-17 0)
(2.9 1.59549e-17 0)
(2.9 6.40677e-18 0)
(2.9 2.14008e-18 0)
(2.9 6.22503e-19 0)
(2.9 1.62413e-19 0)
(2.9 3.87943e-20 0)
(2.9 8.61125e-21 0)
(2.9 1.79643e-21 0)
(2.9 3.55307e-22 0)
(2.9 -1.93074e-17 0)
(2.9 -5.66925e-17 0)
(2.9 -6.30499e-17 0)
(2.9 -4.18104e-17 0)
(2.9 -2.00508e-17 0)
(2.9 -7.68035e-18 0)
(2.9 -2.49107e-18 0)
(2.9 -7.10294e-19 0)
(2.9 -1.82681e-19 0)
(2.9 -4.31686e-20 0)
(2.9 -9.50244e-21 0)
(2.9 -1.96916e-21 0)
(2.9 -3.87352e-22 0)
(2.9 -7.2812e-23 0)
(2.9 -1.31501e-23 0)
(2.9 -2.29207e-24 0)
(2.9 -3.87021e-25 0)
(2.9 -6.35083e-26 0)
(2.9 -1.01553e-26 0)
(2.9 -1.58615e-27 0)
(2.9 -2.42472e-28 0)
(2.9 -3.6343e-29 0)
(2.9 -5.3493e-30 0)
(2.9 -7.74272e-31 0)
(2.9 -1.10342e-31 0)
(2.9 -1.54996e-32 0)
(2.9 -2.14811e-33 0)
(2.9 -2.93992e-34 0)
(2.9 -3.97653e-35 0)
(2.9 -5.31959e-36 0)
(2.9 -7.04279e-37 0)
(2.9 -9.23349e-38 0)
(2.9 -1.19945e-38 0)
(2.9 -1.54459e-39 0)
(2.9 -1.97269e-40 0)
(2.9 -2.49982e-41 0)
(2.9 -3.14437e-42 0)
(2.9 -3.92729e-43 0)
(2.9 -4.87232e-44 0)
(2.9 -6.00619e-45 0)
(2.9 -7.35885e-46 0)
(2.9 -8.96372e-47 0)
(2.9 -1.08579e-47 0)
(2.9 -1.30824e-48 0)
(2.9 -1.56822e-49 0)
(2.9 -1.87069e-50 0)
(2.9 -2.22111e-51 0)
(2.9 -2.97418e-52 0)
(2.9 6.78136e-18 0)
(2.9 1.71899e-17 0)
(2.9 1.48466e-17 0)
(2.9 8.2986e-18 0)
(2.9 3.55207e-18 0)
(2.9 1.26039e-18 0)
(2.9 3.88207e-19 0)
(2.9 1.06934e-19 0)
(2.9 2.68955e-20 0)
(2.9 6.27095e-21 0)
(2.9 1.37109e-21 0)
(2.9 2.83634e-22 0)
(2.9 -8.39921e-18 0)
(2.9 -2.54594e-17 0)
(2.9 -2.9732e-17 0)
(2.9 -2.08953e-17 0)
(2.9 -1.06415e-17 0)
(2.9 -4.32512e-18 0)
(2.9 -1.48566e-18 0)
(2.9 -4.47606e-19 0)
(2.9 -1.21353e-19 0)
(2.9 -3.01599e-20 0)
(2.9 -6.96712e-21 0)
(2.9 -1.51205e-21 0)
(2.9 -3.1091e-22 0)
(2.9 -6.09824e-23 0)
(2.9 -1.14732e-23 0)
(2.9 -2.08007e-24 0)
(2.9 -3.64803e-25 0)
(2.9 -6.20939e-26 0)
(2.9 -1.02865e-26 0)
(2.9 -1.66252e-27 0)
(2.9 -2.627e-28 0)
(2.9 -4.06583e-29 0)
(2.9 -6.1736e-30 0)
(2.9 -9.20985e-31 0)
(2.9 -1.3516e-31 0)
(2.9 -1.95353e-32 0)
(2.9 -2.78365e-33 0)
(2.9 -3.91414e-34 0)
(2.9 -5.43561e-35 0)
(2.9 -7.4607e-36 0)
(2.9 -1.01282e-36 0)
(2.9 -1.36076e-37 0)
(2.9 -1.81041e-38 0)
(2.9 -2.38645e-39 0)
(2.9 -3.1183e-40 0)
(2.9 -4.04083e-41 0)
(2.9 -5.19508e-42 0)
(2.9 -6.62904e-43 0)
(2.9 -8.39849e-44 0)
(2.9 -1.05679e-44 0)
(2.9 -1.32114e-45 0)
(2.9 -1.64138e-46 0)
(2.9 -2.02715e-47 0)
(2.9 -2.48937e-48 0)
(2.9 -3.04034e-49 0)
(2.9 -3.69387e-50 0)
(2.9 -4.46558e-51 0)
(2.9 -6.1005e-52 0)
(2.9 2.79731e-18 0)
(2.9 7.71021e-18 0)
(2.9 7.11977e-18 0)
(2.9 4.23842e-18 0)
(2.9 1.92588e-18 0)
(2.9 7.23246e-19 0)
(2.9 2.35102e-19 0)
(2.9 6.81699e-20 0)
(2.9 1.80054e-20 0)
(2.9 4.39897e-21 0)
(2.9 1.00578e-21 0)
(2.9 2.17177e-22 0)
(2.9 -3.62723e-18 0)
(2.9 -1.13387e-17 0)
(2.9 -1.38746e-17 0)
(2.9 -1.02943e-17 0)
(2.9 -5.54452e-18 0)
(2.9 -2.38177e-18 0)
(2.9 -8.63321e-19 0)
(2.9 -2.73936e-19 0)
(2.9 -7.8058e-20 0)
(2.9 -2.03484e-20 0)
(2.9 -4.92097e-21 0)
(2.9 -1.116e-21 0)
(2.9 -2.39381e-22 0)
(2.9 -4.89008e-23 0)
(2.9 -9.56761e-24 0)
(2.9 -1.80132e-24 0)
(2.9 -3.27641e-25 0)
(2.9 -5.77672e-26 0)
(2.9 -9.90134e-27 0)
(2.9 -1.65393e-27 0)
(2.9 -2.69832e-28 0)
(2.9 -4.30775e-29 0)
(2.9 -6.74087e-30 0)
(2.9 -1.03547e-30 0)
(2.9 -1.56346e-31 0)
(2.9 -2.32318e-32 0)
(2.9 -3.40086e-33 0)
(2.9 -4.90934e-34 0)
(2.9 -6.99459e-35 0)
(2.9 -9.84356e-36 0)
(2.9 -1.36932e-36 0)
(2.9 -1.88412e-37 0)
(2.9 -2.56581e-38 0)
(2.9 -3.46014e-39 0)
(2.9 -4.62317e-40 0)
(2.9 -6.12305e-41 0)
(2.9 -8.04205e-42 0)
(2.9 -1.04788e-42 0)
(2.9 -1.3551e-43 0)
(2.9 -1.73976e-44 0)
(2.9 -2.21827e-45 0)
(2.9 -2.8098e-46 0)
(2.9 -3.53669e-47 0)
(2.9 -4.42481e-48 0)
(2.9 -5.50399e-49 0)
(2.9 -6.80845e-50 0)
(2.9 -8.37763e-51 0)
(2.9 -1.16723e-51 0)
(2.9 1.14764e-18 0)
(2.9 3.43103e-18 0)
(2.9 3.37381e-18 0)
(2.9 2.13072e-18 0)
(2.9 1.02412e-18 0)
(2.9 4.05726e-19 0)
(2.9 1.38785e-19 0)
(2.9 4.22484e-20 0)
(2.9 1.16901e-20 0)
(2.9 2.98613e-21 0)
(2.9 7.12537e-22 0)
(2.9 1.60299e-22 0)
(2.9 -1.55674e-18 0)
(2.9 -5.01399e-18 0)
(2.9 -6.41528e-18 0)
(2.9 -5.00844e-18 0)
(2.9 -2.84276e-18 0)
(2.9 -1.28629e-18 0)
(2.9 -4.90444e-19 0)
(2.9 -1.63423e-19 0)
(2.9 -4.88145e-20 0)
(2.9 -1.33154e-20 0)
(2.9 -3.36367e-21 0)
(2.9 -7.95525e-22 0)
(2.9 -1.77675e-22 0)
(2.9 -3.7737e-23 0)
(2.9 -7.66605e-24 0)
(2.9 -1.49664e-24 0)
(2.9 -2.81939e-25 0)
(2.9 -5.14252e-26 0)
(2.9 -9.10882e-27 0)
(2.9 -1.57081e-27 0)
(2.9 -2.64316e-28 0)
(2.9 -4.34828e-29 0)
(2.9 -7.0057e-30 0)
(2.9 -1.10712e-30 0)
(2.9 -1.71845e-31 0)
(2.9 -2.62308e-32 0)
(2.9 -3.94186e-33 0)
(2.9 -5.83761e-34 0)
(2.9 -8.5272e-35 0)
(2.9 -1.22962e-35 0)
(2.9 -1.75168e-36 0)
(2.9 -2.46692e-37 0)
(2.9 -3.43672e-38 0)
(2.9 -4.73886e-39 0)
(2.9 -6.47105e-40 0)
(2.9 -8.75509e-41 0)
(2.9 -1.17417e-41 0)
(2.9 -1.56158e-42 0)
(2.9 -2.06032e-43 0)
(2.9 -2.69775e-44 0)
(2.9 -3.50681e-45 0)
(2.9 -4.52692e-46 0)
(2.9 -5.80504e-47 0)
(2.9 -7.39673e-48 0)
(2.9 -9.36741e-49 0)
(2.9 -1.17938e-49 0)
(2.9 -1.47659e-50 0)
(2.9 -2.09751e-51 0)
(2.9 4.68705e-19 0)
(2.9 1.51618e-18 0)
(2.9 1.58202e-18 0)
(2.9 1.05636e-18 0)
(2.9 5.35384e-19 0)
(2.9 2.23116e-19 0)
(2.9 8.01025e-20 0)
(2.9 2.55395e-20 0)
(2.9 7.38715e-21 0)
(2.9 1.96897e-21 0)
(2.9 4.89427e-22 0)
(2.9 1.14522e-22 0)
(2.9 -6.64566e-19 0)
(2.9 -2.20348e-18 0)
(2.9 -2.94209e-18 0)
(2.9 -2.40986e-18 0)
(2.9 -1.43703e-18 0)
(2.9 -6.82857e-19 0)
(2.9 -2.73117e-19 0)
(2.9 -9.53238e-20 0)
(2.9 -2.97769e-20 0)
(2.9 -8.48078e-21 0)
(2.9 -2.23342e-21 0)
(2.9 -5.49844e-22 0)
(2.9 -1.27652e-22 0)
(2.9 -2.81449e-23 0)
(2.9 -5.92771e-24 0)
(2.9 -1.19839e-24 0)
(2.9 -2.33517e-25 0)
(2.9 -4.40112e-26 0)
(2.9 -8.04711e-27 0)
(2.9 -1.43114e-27 0)
(2.9 -2.48132e-28 0)
(2.9 -4.20251e-29 0)
(2.9 -6.96517e-30 0)
(2.9 -1.13145e-30 0)
(2.9 -1.80396e-31 0)
(2.9 -2.82657e-32 0)
(2.9 -4.35736e-33 0)
(2.9 -6.61552e-34 0)
(2.9 -9.90119e-35 0)
(2.9 -1.46204e-35 0)
(2.9 -2.13167e-36 0)
(2.9 -3.07096e-37 0)
(2.9 -4.37425e-38 0)
(2.9 -6.16409e-39 0)
(2.9 -8.59825e-40 0)
(2.9 -1.18781e-40 0)
(2.9 -1.62588e-41 0)
(2.9 -2.20609e-42 0)
(2.9 -2.96842e-43 0)
(2.9 -3.96245e-44 0)
(2.9 -5.24916e-45 0)
(2.9 -6.90317e-46 0)
(2.9 -9.01516e-47 0)
(2.9 -1.16948e-47 0)
(2.9 -1.50738e-48 0)
(2.9 -1.93097e-49 0)
(2.9 -2.45912e-50 0)
(2.9 -3.56043e-51 0)
(2.9 1.90697e-19 0)
(2.9 6.65863e-19 0)
(2.9 7.34958e-19 0)
(2.9 5.17306e-19 0)
(2.9 2.75692e-19 0)
(2.9 1.20548e-19 0)
(2.9 4.53171e-20 0)
(2.9 1.51006e-20 0)
(2.9 4.55675e-21 0)
(2.9 1.26504e-21 0)
(2.9 3.27018e-22 0)
(2.9 7.94644e-23 0)
(2.9 -2.82388e-19 0)
(2.9 -9.63092e-19 0)
(2.9 -1.33943e-18 0)
(2.9 -1.14813e-18 0)
(2.9 -7.17335e-19 0)
(2.9 -3.57034e-19 0)
(2.9 -1.49423e-19 0)
(2.9 -5.45007e-20 0)
(2.9 -1.77664e-20 0)
(2.9 -5.27295e-21 0)
(2.9 -1.44503e-21 0)
(2.9 -3.69698e-22 0)
(2.9 -8.90782e-23 0)
(2.9 -2.03587e-23 0)
(2.9 -4.43953e-24 0)
(2.9 -9.28263e-25 0)
(2.9 -1.86879e-25 0)
(2.9 -3.63537e-26 0)
(2.9 -6.85436e-27 0)
(2.9 -1.25594e-27 0)
(2.9 -2.24165e-28 0)
(2.9 -3.90526e-29 0)
(2.9 -6.65278e-30 0)
(2.9 -1.11001e-30 0)
(2.9 -1.81656e-31 0)
(2.9 -2.91966e-32 0)
(2.9 -4.61402e-33 0)
(2.9 -7.17712e-34 0)
(2.9 -1.09992e-34 0)
(2.9 -1.66222e-35 0)
(2.9 -2.47904e-36 0)
(2.9 -3.6514e-37 0)
(2.9 -5.31505e-38 0)
(2.9 -7.65063e-39 0)
(2.9 -1.08962e-39 0)
(2.9 -1.53628e-40 0)
(2.9 -2.14534e-41 0)
(2.9 -2.96856e-42 0)
(2.9 -4.07199e-43 0)
(2.9 -5.53921e-44 0)
(2.9 -7.4753e-45 0)
(2.9 -1.00115e-45 0)
(2.9 -1.33106e-46 0)
(2.9 -1.75733e-47 0)
(2.9 -2.30458e-48 0)
(2.9 -3.00282e-49 0)
(2.9 -3.88865e-50 0)
(2.9 -5.73687e-51 0)
(2.9 7.73369e-20 0)
(2.9 2.90814e-19 0)
(2.9 3.38611e-19 0)
(2.9 2.5056e-19 0)
(2.9 1.40064e-19 0)
(2.9 6.41114e-20 0)
(2.9 2.51828e-20 0)
(2.9 8.75291e-21 0)
(2.9 2.75063e-21 0)
(2.9 7.9404e-22 0)
(2.9 2.13139e-22 0)
(2.9 5.37085e-23 0)
(2.9 -1.19505e-19 0)
(2.9 -4.18916e-19 0)
(2.9 -6.05804e-19 0)
(2.9 -5.4218e-19 0)
(2.9 -3.54067e-19 0)
(2.9 -1.84152e-19 0)
(2.9 -8.04658e-20 0)
(2.9 -3.06073e-20 0)
(2.9 -1.03921e-20 0)
(2.9 -3.20835e-21 0)
(2.9 -9.13428e-22 0)
(2.9 -2.42479e-22 0)
(2.9 -6.05503e-23 0)
(2.9 -1.43258e-23 0)
(2.9 -3.23047e-24 0)
(2.9 -6.97775e-25 0)
(2.9 -1.44977e-25 0)
(2.9 -2.90794e-26 0)
(2.9 -5.64838e-27 0)
(2.9 -1.06534e-27 0)
(2.9 -1.95574e-28 0)
(2.9 -3.50182e-29 0)
(2.9 -6.12692e-30 0)
(2.9 -1.04923e-30 0)
(2.9 -1.76124e-31 0)
(2.9 -2.90176e-32 0)
(2.9 -4.69804e-33 0)
(2.9 -7.48264e-34 0)
(2.9 -1.17355e-34 0)
(2.9 -1.81404e-35 0)
(2.9 -2.76596e-36 0)
(2.9 -4.16317e-37 0)
(2.9 -6.18986e-38 0)
(2.9 -9.09688e-39 0)
(2.9 -1.32225e-39 0)
(2.9 -1.90186e-40 0)
(2.9 -2.70837e-41 0)
(2.9 -3.82035e-42 0)
(2.9 -5.34017e-43 0)
(2.9 -7.40012e-44 0)
(2.9 -1.017e-44 0)
(2.9 -1.3866e-45 0)
(2.9 -1.87619e-46 0)
(2.9 -2.52018e-47 0)
(2.9 -3.3616e-48 0)
(2.9 -4.45386e-49 0)
(2.9 -5.86334e-50 0)
(2.9 -8.81154e-51 0)
(2.9 3.12781e-20 0)
(2.9 1.26384e-19 0)
(2.9 1.54844e-19 0)
(2.9 1.20169e-19 0)
(2.9 7.03028e-20 0)
(2.9 3.36161e-20 0)
(2.9 1.37704e-20 0)
(2.9 4.98357e-21 0)
(2.9 1.62825e-21 0)
(2.9 4.88011e-22 0)
(2.9 1.35826e-22 0)
(2.9 3.54462e-23 0)
(2.9 -5.03914e-20 0)
(2.9 -1.8143e-19 0)
(2.9 -2.72374e-19 0)
(2.9 -2.53995e-19 0)
(2.9 -1.72998e-19 0)
(2.9 -9.38249e-20 0)
(2.9 -4.2718e-20 0)
(2.9 -1.69137e-20 0)
(2.9 -5.97089e-21 0)
(2.9 -1.91438e-21 0)
(2.9 -5.65367e-22 0)
(2.9 -1.55506e-22 0)
(2.9 -4.01912e-23 0)
(2.9 -9.83157e-24 0)
(2.9 -2.28994e-24 0)
(2.9 -5.10408e-25 0)
(2.9 -1.09334e-25 0)
(2.9 -2.25902e-26 0)
(2.9 -4.51631e-27 0)
(2.9 -8.76072e-28 0)
(2.9 -1.65284e-28 0)
(2.9 -3.03936e-29 0)
(2.9 -5.45769e-30 0)
(2.9 -9.58603e-31 0)
(2.9 -1.6494e-31 0)
(2.9 -2.78391e-32 0)
(2.9 -4.61487e-33 0)
(2.9 -7.5217e-34 0)
(2.9 -1.2066e-34 0)
(2.9 -1.90676e-35 0)
(2.9 -2.97085e-36 0)
(2.9 -4.56723e-37 0)
(2.9 -6.93293e-38 0)
(2.9 -1.03982e-38 0)
(2.9 -1.54182e-39 0)
(2.9 -2.26148e-40 0)
(2.9 -3.28287e-41 0)
(2.9 -4.71877e-42 0)
(2.9 -6.71912e-43 0)
(2.9 -9.48167e-44 0)
(2.9 -1.32653e-44 0)
(2.9 -1.84062e-45 0)
(2.9 -2.53385e-46 0)
(2.9 -3.4618e-47 0)
(2.9 -4.69526e-48 0)
(2.9 -6.32381e-49 0)
(2.9 -8.46067e-50 0)
(2.9 -1.29487e-50 0)
(2.9 1.26205e-20 0)
(2.9 5.46792e-20 0)
(2.9 7.03329e-20 0)
(2.9 5.71216e-20 0)
(2.9 3.49031e-20 0)
(2.9 1.74014e-20 0)
(2.9 7.42085e-21 0)
(2.9 2.79179e-21 0)
(2.9 9.46905e-22 0)
(2.9 2.9424e-22 0)
(2.9 8.48046e-23 0)
(2.9 2.28916e-23 0)
(2.9 -2.118e-20 0)
(2.9 -7.82714e-20 0)
(2.9 -1.21803e-19 0)
(2.9 -1.18129e-19 0)
(2.9 -8.3754e-20 0)
(2.9 -4.7276e-20 0)
(2.9 -2.23873e-20 0)
(2.9 -9.21082e-21 0)
(2.9 -3.37539e-21 0)
(2.9 -1.12222e-21 0)
(2.9 -3.43303e-22 0)
(2.9 -9.7711e-23 0)
(2.9 -2.61058e-23 0)
(2.9 -6.59506e-24 0)
(2.9 -1.58492e-24 0)
(2.9 -3.64169e-25 0)
(2.9 -8.03483e-26 0)
(2.9 -1.70856e-26 0)
(2.9 -3.51278e-27 0)
(2.9 -7.0024e-28 0)
(2.9 -1.35668e-28 0)
(2.9 -2.56024e-29 0)
(2.9 -4.71503e-30 0)
(2.9 -8.48852e-31 0)
(2.9 -1.49619e-31 0)
(2.9 -2.5855e-32 0)
(2.9 -4.3858e-33 0)
(2.9 -7.31117e-34 0)
(2.9 -1.19896e-34 0)
(2.9 -1.93602e-35 0)
(2.9 -3.08088e-36 0)
(2.9 -4.83548e-37 0)
(2.9 -7.49065e-38 0)
(2.9 -1.14605e-38 0)
(2.9 -1.73285e-39 0)
(2.9 -2.59084e-40 0)
(2.9 -3.8324e-41 0)
(2.9 -5.61134e-42 0)
(2.9 -8.13633e-43 0)
(2.9 -1.16881e-43 0)
(2.9 -1.66411e-44 0)
(2.9 -2.34916e-45 0)
(2.9 -3.28915e-46 0)
(2.9 -4.5692e-47 0)
(2.9 -6.29968e-48 0)
(2.9 -8.62273e-49 0)
(2.9 -1.17212e-49 0)
(2.9 -1.82639e-50 0)
(2.9 5.08203e-21 0)
(2.9 2.3561e-20 0)
(2.9 3.17513e-20 0)
(2.9 2.69336e-20 0)
(2.9 1.71568e-20 0)
(2.9 8.90332e-21 0)
(2.9 3.94632e-21 0)
(2.9 1.54101e-21 0)
(2.9 5.41834e-22 0)
(2.9 1.74334e-22 0)
(2.9 5.19676e-23 0)
(2.9 1.44932e-23 0)
(2.9 -8.8763e-21 0)
(2.9 -3.36486e-20 0)
(2.9 -5.42018e-20 0)
(2.9 -5.45781e-20 0)
(2.9 -4.02099e-20 0)
(2.9 -2.35818e-20 0)
(2.9 -1.15954e-20 0)
(2.9 -4.94963e-21 0)
(2.9 -1.88011e-21 0)
(2.9 -6.4729e-22 0)
(2.9 -2.04851e-22 0)
(2.9 -6.02595e-23 0)
(2.9 -1.6624e-23 0)
(2.9 -4.33252e-24 0)
(2.9 -1.07319e-24 0)
(2.9 -2.5396e-25 0)
(2.9 -5.76615e-26 0)
(2.9 -1.26084e-26 0)
(2.9 -2.66372e-27 0)
(2.9 -5.45249e-28 0)
(2.9 -1.08405e-28 0)
(2.9 -2.09801e-29 0)
(2.9 -3.9601e-30 0)
(2.9 -7.30298e-31 0)
(2.9 -1.31784e-31 0)
(2.9 -2.33026e-32 0)
(2.9 -4.04272e-33 0)
(2.9 -6.8892e-34 0)
(2.9 -1.15437e-34 0)
(2.9 -1.90377e-35 0)
(2.9 -3.09284e-36 0)
(2.9 -4.95366e-37 0)
(2.9 -7.82777e-38 0)
(2.9 -1.22121e-38 0)
(2.9 -1.88217e-39 0)
(2.9 -2.86745e-40 0)
(2.9 -4.32052e-41 0)
(2.9 -6.44171e-42 0)
(2.9 -9.50813e-43 0)
(2.9 -1.38998e-43 0)
(2.9 -2.01335e-44 0)
(2.9 -2.89066e-45 0)
(2.9 -4.11525e-46 0)
(2.9 -5.8112e-47 0)
(2.9 -8.14223e-48 0)
(2.9 -1.1323e-48 0)
(2.9 -1.56341e-49 0)
(2.9 -2.47966e-50 0)
(2.9 2.0429e-21 0)
(2.9 1.0115e-20 0)
(2.9 1.42541e-20 0)
(2.9 1.26061e-20 0)
(2.9 8.35734e-21 0)
(2.9 4.50703e-21 0)
(2.9 2.07327e-21 0)
(2.9 8.39181e-22 0)
(2.9 3.05485e-22 0)
(2.9 1.01648e-22 0)
(2.9 3.13034e-23 0)
(2.9 9.01024e-24 0)
(2.9 -3.71011e-21 0)
(2.9 -1.44191e-20 0)
(2.9 -2.40112e-20 0)
(2.9 -2.50641e-20 0)
(2.9 -1.91574e-20 0)
(2.9 -1.16547e-20 0)
(2.9 -5.94157e-21 0)
(2.9 -2.62756e-21 0)
(2.9 -1.03314e-21 0)
(2.9 -3.67861e-22 0)
(2.9 -1.20293e-22 0)
(2.9 -3.65307e-23 0)
(2.9 -1.03949e-23 0)
(2.9 -2.79202e-24 0)
(2.9 -7.1219e-25 0)
(2.9 -1.73415e-25 0)
(2.9 -4.04845e-26 0)
(2.9 -9.09571e-27 0)
(2.9 -1.97308e-27 0)
(2.9 -4.14428e-28 0)
(2.9 -8.44957e-29 0)
(2.9 -1.67596e-29 0)
(2.9 -3.24032e-30 0)
(2.9 -6.11746e-31 0)
(2.9 -1.12953e-31 0)
(2.9 -2.04263e-32 0)
(2.9 -3.62242e-33 0)
(2.9 -6.30718e-34 0)
(2.9 -1.07935e-34 0)
(2.9 -1.81718e-35 0)
(2.9 -3.01254e-36 0)
(2.9 -4.92177e-37 0)
(2.9 -7.93032e-38 0)
(2.9 -1.26108e-38 0)
(2.9 -1.98042e-39 0)
(2.9 -3.07323e-40 0)
(2.9 -4.71516e-41 0)
(2.9 -7.15622e-42 0)
(2.9 -1.0749e-42 0)
(2.9 -1.59862e-43 0)
(2.9 -2.35503e-44 0)
(2.9 -3.4379e-45 0)
(2.9 -4.97505e-46 0)
(2.9 -7.13936e-47 0)
(2.9 -1.0163e-47 0)
(2.9 -1.43554e-48 0)
(2.9 -2.01283e-49 0)
(2.9 -3.24875e-50 0)
(2.9 8.19986e-22 0)
(2.9 4.32796e-21 0)
(2.9 6.36646e-21 0)
(2.9 5.86046e-21 0)
(2.9 4.03726e-21 0)
(2.9 2.25935e-21 0)
(2.9 1.07716e-21 0)
(2.9 4.51344e-22 0)
(2.9 1.69901e-22 0)
(2.9 5.83995e-23 0)
(2.9 1.85601e-23 0)
(2.9 5.50815e-24 0)
(2.9 -1.54697e-21 0)
(2.9 -6.16075e-21 0)
(2.9 -1.0593e-20 0)
(2.9 -1.14464e-20 0)
(2.9 -9.06326e-21 0)
(2.9 -5.71142e-21 0)
(2.9 -3.01459e-21 0)
(2.9 -1.37933e-21 0)
(2.9 -5.60696e-22 0)
(2.9 -2.06227e-22 0)
(2.9 -6.96041e-23 0)
(2.9 -2.17985e-23 0)
(2.9 -6.39166e-24 0)
(2.9 -1.76764e-24 0)
(2.9 -4.63902e-25 0)
(2.9 -1.16133e-25 0)
(2.9 -2.78546e-26 0)
(2.9 -6.42528e-27 0)
(2.9 -1.43011e-27 0)
(2.9 -3.08018e-28 0)
(2.9 -6.43592e-29 0)
(2.9 -1.30751e-29 0)
(2.9 -2.58785e-30 0)
(2.9 -4.99883e-31 0)
(2.9 -9.43904e-32 0)
(2.9 -1.74479e-32 0)
(2.9 -3.1614e-33 0)
(2.9 -5.62151e-34 0)
(2.9 -9.82049e-35 0)
(2.9 -1.68713e-35 0)
(2.9 -2.85294e-36 0)
(2.9 -4.75255e-37 0)
(2.9 -7.80521e-38 0)
(2.9 -1.26466e-38 0)
(2.9 -2.02293e-39 0)
(2.9 -3.19645e-40 0)
(2.9 -4.99209e-41 0)
(2.9 -7.70998e-42 0)
(2.9 -1.17813e-42 0)
(2.9 -1.78197e-43 0)
(2.9 -2.6691e-44 0)
(2.9 -3.96059e-45 0)
(2.9 -5.82437e-46 0)
(2.9 -8.49156e-47 0)
(2.9 -1.22778e-47 0)
(2.9 -1.76111e-48 0)
(2.9 -2.50698e-49 0)
(2.9 -4.1167e-50 0)
(2.9 3.28704e-22 0)
(2.9 1.84613e-21 0)
(2.9 2.83019e-21 0)
(2.9 2.70758e-21 0)
(2.9 1.93545e-21 0)
(2.9 1.12245e-21 0)
(2.9 5.53919e-22 0)
(2.9 2.39985e-22 0)
(2.9 9.3312e-23 0)
(2.9 3.30978e-23 0)
(2.9 1.08448e-23 0)
(2.9 3.31528e-24 0)
(2.9 -6.43559e-22 0)
(2.9 -2.62516e-21 0)
(2.9 -4.65545e-21 0)
(2.9 -5.2007e-21 0)
(2.9 -4.26008e-21 0)
(2.9 -2.7771e-21 0)
(2.9 -1.51566e-21 0)
(2.9 -7.16639e-22 0)
(2.9 -3.00818e-22 0)
(2.9 -1.14166e-22 0)
(2.9 -3.97291e-23 0)
(2.9 -1.28188e-23 0)
(2.9 -3.8695e-24 0)
(2.9 -1.10087e-24 0)
(2.9 -2.97005e-25 0)
(2.9 -7.6382e-26 0)
(2.9 -1.8808e-26 0)
(2.9 -4.4512e-27 0)
(2.9 -1.01585e-27 0)
(2.9 -2.24213e-28 0)
(2.9 -4.79818e-29 0)
(2.9 -9.97837e-30 0)
(2.9 -2.02061e-30 0)
(2.9 -3.99141e-31 0)
(2.9 -7.70362e-32 0)
(2.9 -1.45486e-32 0)
(2.9 -2.69204e-33 0)
(2.9 -4.88648e-34 0)
(2.9 -8.71049e-35 0)
(2.9 -1.52635e-35 0)
(2.9 -2.63169e-36 0)
(2.9 -4.46835e-37 0)
(2.9 -7.47709e-38 0)
(2.9 -1.23397e-38 0)
(2.9 -2.0098e-39 0)
(2.9 -3.23255e-40 0)
(2.9 -5.13728e-41 0)
(2.9 -8.07144e-42 0)
(2.9 -1.25434e-42 0)
(2.9 -1.92898e-43 0)
(2.9 -2.93686e-44 0)
(2.9 -4.42849e-45 0)
(2.9 -6.61631e-46 0)
(2.9 -9.7976e-47 0)
(2.9 -1.43852e-47 0)
(2.9 -2.09482e-48 0)
(2.9 -3.0268e-49 0)
(2.9 -5.05561e-50 0)
(2.9 1.31618e-22 0)
(2.9 7.85266e-22 0)
(2.9 1.25272e-21 0)
(2.9 1.24377e-21 0)
(2.9 9.2132e-22 0)
(2.9 5.53015e-22 0)
(2.9 2.82155e-22 0)
(2.9 1.26256e-22 0)
(2.9 5.06549e-23 0)
(2.9 1.85226e-23 0)
(2.9 6.25131e-24 0)
(2.9 1.96681e-24 0)
(2.9 -2.67155e-22 0)
(2.9 -1.11582e-21 0)
(2.9 -2.03878e-21 0)
(2.9 -2.35175e-21 0)
(2.9 -1.99043e-21 0)
(2.9 -1.3406e-21 0)
(2.9 -7.55649e-22 0)
(2.9 -3.68791e-22 0)
(2.9 -1.59683e-22 0)
(2.9 -6.24688e-23 0)
(2.9 -2.2392e-23 0)
(2.9 -7.43666e-24 0)
(2.9 -2.30902e-24 0)
(2.9 -6.75229e-25 0)