/*--------------------------------*- C++ -*----------------------------------*\
| =========                 |                                                 |
| \\      /  F ield         | OpenFOAM: The Open Source CFD Toolbox           |
|  \\    /   O peration     | Version:  2412                                  |
|   \\  /    A nd           | Website:  www.openfoam.com                      |
|    \\/     M anipulation  |                                                 |
\*---------------------------------------------------------------------------*/
FoamFile
{
    version     2.0;
    format      ascii;
    arch        "LSB;label=32;scalar=64";
    class       volVectorField;
    location    "0.000117655";
    object      U;
}
// * * * * * * * * * * * * * * * * * * * * * * * * * * * * * * * * * * * * * //

dimensions      [0 1 -1 0 0 0 0];

internalField   nonuniform List<vector> 
1800
(
(2.9 4.4254e-15 0)
(2.9 5.78991e-14 0)
(2.9 -2.12683e-14 0)
(2.9 1.87218e-14 0)
(2.9 3.13698e-14 0)
(2.9 3.89489e-14 0)
(2.9 -4.87542e-15 0)
(2.9 -8.45773e-15 0)
(2.9 -2.83757e-14 0)
(2.9 1.92224e-14 0)
(2.9 2.68824e-14 0)
(2.9 2.55848e-14 0)
(2.9 -3.12189e-16 0)
(2.9 -1.76241e-14 0)
(2.9 -1.68137e-14 0)
(2.9 3.59239e-14 0)
(2.9 1.61325e-14 0)
(2.9 -3.50302e-14 0)
(2.9 -5.46409e-14 0)
(2.9 -3.97074e-14 0)
(2.9 -3.20435e-14 0)
(2.9 -2.68141e-14 0)
(2.9 -1.05961e-14 0)
(2.9 -1.52012e-14 0)
(2.9 4.87299e-15 0)
(2.9 -2.0734e-14 0)
(2.9 -2.72485e-14 0)
(2.9 2.21511e-16 0)
(2.9 4.45126e-15 0)
(2.9 2.17958e-14 0)
(2.9 -1.84812e-14 0)
(2.9 -5.06069e-15 0)
(2.9 -3.40161e-14 0)
(2.9 -5.14343e-14 0)
(2.9 -4.73641e-14 0)
(2.9 -6.99648e-14 0)
(2.9 -2.48589e-14 0)
(2.9 -2.13271e-14 0)
(2.9 -5.15009e-14 0)
(2.9 -2.14846e-14 0)
(2.9 -1.67527e-14 0)
(2.9 4.39755e-14 0)
(2.9 1.48087e-14 0)
(2.9 -4.82397e-14 0)
(2.9 2.81923e-15 0)
(2.9 -3.14185e-14 0)
(2.9 -4.84446e-14 0)
(2.9 -3.81347e-14 0)
(2.9 -2.57077e-14 0)
(2.9 -3.96228e-14 0)
(2.9 -3.39475e-14 0)
(2.9 -4.32752e-15 0)
(2.9 -4.0538e-15 0)
(2.9 -2.11126e-14 0)
(2.9 1.48316e-14 0)
(2.9 -5.70922e-15 0)
(2.9 -8.18848e-15 0)
(2.9 -1.89774e-14 0)
(2.9 -9.44825e-16 0)
(2.9 -1.14768e-14 0)
(2.9 1.22768e-14 0)
(2.9 -2.74081e-15 0)
(2.9 -6.68054e-14 0)
(2.9 6.97308e-15 0)
(2.9 6.27578e-14 0)
(2.9 1.4116e-14 0)
(2.9 -6.57528e-15 0)
(2.9 -1.08181e-14 0)
(2.9 -3.12904e-14 0)
(2.9 2.60352e-14 0)
(2.9 2.5181e-14 0)
(2.9 2.07807e-15 0)
(2.9 -8.77598e-15 0)
(2.9 -6.82979e-14 0)
(2.9 6.86684e-15 0)
(2.9 6.126e-14 0)
(2.9 6.49775e-14 0)
(2.9 -8.32496e-14 0)
(2.9 -8.27715e-14 0)
(2.9 -1.17782e-13 0)
(2.9 -1.03086e-13 0)
(2.9 -8.52815e-14 0)
(2.9 -3.11291e-14 0)
(2.9 2.76328e-15 0)
(2.9 8.70673e-16 0)
(2.9 -7.46454e-14 0)
(2.9 -5.07804e-14 0)
(2.9 4.60855e-15 0)
(2.9 2.32697e-14 0)
(2.9 -2.52181e-14 0)
(2.9 -6.37135e-14 0)
(2.9 -5.51893e-14 0)
(2.9 -9.24187e-14 0)
(2.9 -1.14655e-13 0)
(2.9 -1.64863e-13 0)
(2.9 -1.74555e-13 0)
(2.9 -8.49066e-14 0)
(2.9 -6.58535e-14 0)
(2.9 -8.00609e-14 0)
(2.9 -3.68037e-14 0)
(2.9 -5.72224e-14 0)
(2.9 6.84918e-14 0)
(2.9 7.0766e-15 0)
(2.9 9.62295e-15 0)
(2.9 -5.57236e-14 0)
(2.9 -1.02689e-13 0)
(2.9 -1.58422e-13 0)
(2.9 -1.29354e-13 0)
(2.9 -6.02322e-14 0)
(2.9 -8.38417e-14 0)
(2.9 -5.5818e-14 0)
(2.9 -4.43199e-14 0)
(2.9 -1.00566e-14 0)
(2.9 -5.85906e-14 0)
(2.9 -3.9561e-14 0)
(2.9 -5.93347e-14 0)
(2.9 -2.8433e-14 0)
(2.9 -5.57531e-14 0)
(2.9 3.43e-15 0)
(2.9 -4.38868e-14 0)
(2.9 -2.35713e-14 0)
(2.9 -5.3629e-14 0)
(2.9 -7.68484e-14 0)
(2.9 -8.73173e-14 0)
(2.9 -1.09737e-14 0)
(2.9 2.69016e-15 0)
(2.9 -9.7275e-15 0)
(2.9 4.60783e-14 0)
(2.9 4.43522e-14 0)
(2.9 1.13197e-14 0)
(2.9 9.99385e-14 0)
(2.9 -3.34967e-14 0)
(2.9 6.21079e-14 0)
(2.9 1.82018e-14 0)
(2.9 2.2714e-14 0)
(2.9 2.58897e-14 0)
(2.9 5.23042e-14 0)
(2.9 2.37566e-14 0)
(2.9 7.47376e-15 0)
(2.9 -6.30466e-14 0)
(2.9 -1.06876e-13 0)
(2.9 -1.10176e-13 0)
(2.9 -4.8271e-14 0)
(2.9 -3.08134e-14 0)
(2.9 -3.1405e-14 0)
(2.9 -5.57291e-14 0)
(2.9 4.84648e-14 0)
(2.9 2.31853e-14 0)
(2.9 2.07639e-14 0)
(2.9 3.55388e-15 0)
(2.9 -8.48646e-14 0)
(2.9 -1.0456e-13 0)
(2.9 -1.01972e-13 0)
(2.9 -7.6061e-14 0)
(2.9 -1.26903e-13 0)
(2.9 -1.32226e-13 0)
(2.9 -6.52531e-14 0)
(2.9 -7.33921e-14 0)
(2.9 -8.67766e-14 0)
(2.9 -4.63468e-14 0)
(2.9 -1.26094e-13 0)
(2.9 -1.89718e-14 0)
(2.9 -1.28138e-14 0)
(2.9 -4.04397e-17 0)
(2.9 -3.42173e-14 0)
(2.9 -1.24659e-13 0)
(2.9 -1.65475e-13 0)
(2.9 -8.07628e-14 0)
(2.9 -6.28309e-14 0)
(2.9 -2.22471e-14 0)
(2.9 -6.09171e-14 0)
(2.9 -5.90007e-14 0)
(2.9 -2.11497e-14 0)
(2.9 -7.96607e-14 0)
(2.9 -5.29116e-14 0)
(2.9 -4.88306e-14 0)
(2.9 -2.77575e-14 0)
(2.9 -5.27885e-14 0)
(2.9 1.66813e-14 0)
(2.9 2.15324e-14 0)
(2.9 -2.26872e-14 0)
(2.9 -5.10086e-14 0)
(2.9 -8.7529e-14 0)
(2.9 -1.11417e-13 0)
(2.9 -2.28095e-14 0)
(2.9 -3.05458e-14 0)
(2.9 -2.17089e-14 0)
(2.9 -2.24694e-14 0)
(2.9 3.59406e-14 0)
(2.9 6.01197e-14 0)
(2.9 8.55513e-14 0)
(2.9 -4.66909e-14 0)
(2.9 3.82138e-15 0)
(2.9 -1.33129e-14 0)
(2.9 -1.01982e-14 0)
(2.9 4.59092e-14 0)
(2.9 3.41143e-14 0)
(2.9 4.03743e-14 0)
(2.9 -1.00657e-14 0)
(2.9 -3.63133e-14 0)
(2.9 -8.76992e-14 0)
(2.9 -6.41932e-14 0)
(2.9 -4.78547e-14 0)
(2.9 -7.16909e-15 0)
(2.9 -1.22038e-14 0)
(2.9 -1.87296e-14 0)
(2.9 4.58384e-14 0)
(2.9 5.34354e-15 0)
(2.9 3.86055e-14 0)
(2.9 3.59371e-15 0)
(2.9 -6.1086e-14 0)
(2.9 -8.17278e-14 0)
(2.9 -1.42761e-13 0)
(2.9 -1.03576e-13 0)
(2.9 -1.11113e-13 0)
(2.9 -1.00734e-13 0)
(2.9 -4.6678e-14 0)
(2.9 -4.11596e-14 0)
(2.9 -7.42425e-14 0)
(2.9 -9.89969e-14 0)
(2.9 -1.42106e-13 0)
(2.9 -4.33019e-14 0)
(2.9 -1.63922e-14 0)
(2.9 2.33793e-14 0)
(2.9 -1.30293e-15 0)
(2.9 -7.80108e-14 0)
(2.9 -1.50442e-13 0)
(2.9 -7.19458e-14 0)
(2.9 -3.63951e-14 0)
(2.9 -2.39315e-14 0)
(2.9 -2.58444e-14 0)
(2.9 -5.71371e-14 0)
(2.9 -5.24002e-14 0)
(2.9 -6.64902e-14 0)
(2.9 -7.66949e-14 0)
(2.9 -3.46796e-14 0)
(2.9 -7.01642e-15 0)
(2.9 1.77678e-14 0)
(2.9 1.23794e-13 0)
(2.9 8.63613e-14 0)
(2.9 -1.15981e-14 0)
(2.9 -7.6042e-14 0)
(2.9 -8.22864e-14 0)
(2.9 -1.05982e-13 0)
(2.9 -4.69222e-14 0)
(2.9 -2.80546e-14 0)
(2.9 -2.67181e-14 0)
(2.9 -1.65576e-14 0)
(2.9 1.07488e-14 0)
(2.9 1.056e-13 0)
(2.9 1.86777e-14 0)
(2.9 -4.39786e-14 0)
(2.9 -6.9036e-14 0)
(2.9 -6.61728e-14 0)
(2.9 -9.18782e-14 0)
(2.9 -2.32027e-14 0)
(2.9 7.61271e-15 0)
(2.9 -3.50264e-14 0)
(2.9 -1.39559e-14 0)
(2.9 -6.08232e-14 0)
(2.9 -2.70149e-14 0)
(2.9 -3.16475e-14 0)
(2.9 -5.2825e-14 0)
(2.9 -5.22487e-14 0)
(2.9 -3.17082e-16 0)
(2.9 8.4551e-15 0)
(2.9 3.8251e-14 0)
(2.9 -3.17211e-14 0)
(2.9 -6.03178e-15 0)
(2.9 -1.03297e-14 0)
(2.9 -3.87756e-14 0)
(2.9 -7.65699e-14 0)
(2.9 -9.17664e-14 0)
(2.9 -8.83888e-14 0)
(2.9 -8.82139e-14 0)
(2.9 -4.43295e-14 0)
(2.9 -2.98543e-14 0)
(2.9 -1.16706e-14 0)
(2.9 -1.49569e-14 0)
(2.9 -7.35923e-14 0)
(2.9 -7.19754e-14 0)
(2.9 3.57687e-14 0)
(2.9 -2.23076e-14 0)
(2.9 8.26567e-14 0)
(2.9 -9.47078e-15 0)
(2.9 -1.86983e-14 0)
(2.9 -3.31852e-14 0)
(2.9 -5.15209e-14 0)
(2.9 -2.52633e-14 0)
(2.9 -1.71475e-14 0)
(2.9 2.15614e-14 0)
(2.9 -5.72421e-14 0)
(2.9 -8.44913e-14 0)
(2.9 -6.76007e-14 0)
(2.9 -9.56735e-14 0)
(2.9 -5.57514e-14 0)
(2.9 -1.05713e-14 0)
(2.9 7.25836e-14 0)
(2.9 9.95973e-14 0)
(2.9 -7.09851e-15 0)
(2.9 5.61882e-15 0)
(2.9 4.56314e-15 0)
(2.9 -3.78518e-14 0)
(2.9 -2.68945e-14 0)
(2.9 2.78791e-15 0)
(2.9 -9.18923e-14 0)
(2.9 -5.20969e-14 0)
(2.9 -2.78277e-14 0)
(2.9 1.77057e-14 0)
(2.9 1.00317e-13 0)
(2.9 3.0725e-14 0)
(2.9 6.78197e-14 0)
(2.9 5.40132e-14 0)
(2.9 -1.59172e-14 0)
(2.9 -8.71014e-14 0)
(2.9 -1.81285e-14 0)
(2.9 -7.07216e-15 0)
(2.9 -2.71173e-14 0)
(2.9 -1.65253e-14 0)
(2.9 -1.08007e-14 0)
(2.9 -2.5804e-14 0)
(2.9 -4.85665e-14 0)
(2.9 -2.60628e-14 0)
(2.9 -6.31257e-15 0)
(2.9 2.36175e-14 0)
(2.9 1.524e-14 0)
(2.9 2.66708e-14 0)
(2.9 -4.30667e-15 0)
(2.9 -5.21358e-14 0)
(2.9 6.64149e-14 0)
(2.9 -6.38775e-14 0)
(2.9 2.27743e-14 0)
(2.9 8.87825e-15 0)
(2.9 -5.54444e-15 0)
(2.9 -4.65357e-14 0)
(2.9 -9.10216e-14 0)
(2.9 -7.21833e-14 0)
(2.9 1.95104e-14 0)
(2.9 1.39789e-14 0)
(2.9 -3.08016e-14 0)
(2.9 5.04435e-14 0)
(2.9 2.37942e-14 0)
(2.9 3.83345e-14 0)
(2.9 2.71483e-14 0)
(2.9 1.26325e-14 0)
(2.9 -1.64987e-16 0)
(2.9 -5.7985e-14 0)
(2.9 1.63343e-14 0)
(2.9 4.46599e-14 0)
(2.9 4.76166e-14 0)
(2.9 6.17279e-14 0)
(2.9 1.82668e-14 0)
(2.9 -2.71075e-14 0)
(2.9 -1.78419e-14 0)
(2.9 -3.63912e-14 0)
(2.9 -1.56223e-14 0)
(2.9 1.6887e-14 0)
(2.9 1.06126e-13 0)
(2.9 3.40597e-15 0)
(2.9 -1.02741e-13 0)
(2.9 4.47014e-15 0)
(2.9 6.09926e-14 0)
(2.9 3.50613e-14 0)
(2.9 -1.00596e-14 0)
(2.9 -3.58527e-14 0)
(2.9 -1.17491e-13 0)
(2.9 -4.65758e-14 0)
(2.9 -2.52194e-14 0)
(2.9 1.94608e-14 0)
(2.9 3.64523e-14 0)
(2.9 -3.25406e-14 0)
(2.9 6.13583e-14 0)
(2.9 7.43132e-14 0)
(2.9 -2.37036e-15 0)
(2.9 -1.30956e-14 0)
(2.9 -8.52247e-14 0)
(2.9 -2.24776e-14 0)
(2.9 -4.53542e-14 0)
(2.9 3.34498e-14 0)
(2.9 5.35365e-14 0)
(2.9 3.11696e-14 0)
(2.9 -3.93181e-14 0)
(2.9 1.59026e-14 0)
(2.9 -4.23281e-14 0)
(2.9 -1.51225e-16 0)
(2.9 5.65542e-14 0)
(2.9 3.95908e-14 0)
(2.9 4.15169e-14 0)
(2.9 -7.05869e-14 0)
(2.9 5.7391e-14 0)
(2.9 -9.86032e-15 0)
(2.9 5.36117e-14 0)
(2.9 4.03115e-14 0)
(2.9 2.56815e-14 0)
(2.9 -4.80742e-14 0)
(2.9 -5.02958e-14 0)
(2.9 -4.40729e-15 0)
(2.9 1.52128e-14 0)
(2.9 -2.76334e-14 0)
(2.9 -2.92047e-14 0)
(2.9 9.56258e-14 0)
(2.9 7.54248e-14 0)
(2.9 5.46726e-14 0)
(2.9 -9.42872e-15 0)
(2.9 3.72833e-14 0)
(2.9 4.46614e-15 0)
(2.9 -2.97218e-14 0)
(2.9 -3.49424e-15 0)
(2.9 6.98362e-16 0)
(2.9 3.24196e-14 0)
(2.9 2.33689e-14 0)
(2.9 1.14389e-15 0)
(2.9 3.06539e-14 0)
(2.9 -2.46542e-14 0)
(2.9 -1.8704e-14 0)
(2.9 3.51511e-14 0)
(2.9 5.27571e-15 0)
(2.9 -1.34913e-14 0)
(2.9 -2.52774e-14 0)
(2.9 -1.1238e-13 0)
(2.9 -1.45889e-14 0)
(2.9 6.87026e-14 0)
(2.9 7.59802e-14 0)
(2.9 -3.1306e-14 0)
(2.9 -9.74264e-14 0)
(2.9 -5.31866e-14 0)
(2.9 4.9737e-14 0)
(2.9 6.14358e-14 0)
(2.9 2.81948e-14 0)
(2.9 -3.11105e-15 0)
(2.9 2.48506e-14 0)
(2.9 2.49492e-14 0)
(2.9 5.97302e-14 0)
(2.9 7.90272e-14 0)
(2.9 7.10944e-14 0)
(2.9 -6.4054e-14 0)
(2.9 -2.70338e-14 0)
(2.9 -1.1909e-14 0)
(2.9 4.29382e-14 0)
(2.9 6.48286e-14 0)
(2.9 1.03779e-13 0)
(2.9 5.04412e-14 0)
(2.9 3.99049e-14 0)
(2.9 4.31541e-14 0)
(2.9 -3.44406e-15 0)
(2.9 2.97265e-14 0)
(2.9 5.15335e-14 0)
(2.9 4.21438e-14 0)
(2.9 2.53449e-14 0)
(2.9 6.22452e-14 0)
(2.9 1.17073e-14 0)
(2.9 3.55621e-14 0)
(2.9 7.13428e-14 0)
(2.9 3.43747e-14 0)
(2.9 1.9823e-14 0)
(2.9 2.68047e-14 0)
(2.9 6.40649e-14 0)
(2.9 1.03875e-14 0)
(2.9 -5.04402e-14 0)
(2.9 -6.60896e-14 0)
(2.9 9.99667e-14 0)
(2.9 1.29013e-13 0)
(2.9 1.18521e-13 0)
(2.9 -3.21687e-14 0)
(2.9 4.61804e-14 0)
(2.9 -2.49533e-14 0)
(2.9 7.92891e-14 0)
(2.9 3.56306e-14 0)
(2.9 1.681e-14 0)
(2.9 5.47457e-14 0)
(2.9 5.18004e-14 0)
(2.9 4.7987e-14 0)
(2.9 8.00367e-14 0)
(2.9 -6.35975e-15 0)
(2.9 1.89216e-14 0)
(2.9 2.77437e-14 0)
(2.9 1.99246e-14 0)
(2.9 -3.84442e-14 0)
(2.9 -7.05965e-14 0)
(2.9 -1.00454e-13 0)
(2.9 1.92282e-14 0)
(2.9 3.86711e-14 0)
(2.9 1.50405e-14 0)
(2.9 -2.44478e-14 0)
(2.9 -1.32548e-14 0)
(2.9 -3.09206e-14 0)
(2.9 -2.50935e-14 0)
(2.9 2.89189e-14 0)
(2.9 3.16748e-14 0)
(2.9 5.5484e-14 0)
(2.9 5.39845e-14 0)
(2.9 4.96739e-14 0)
(2.9 4.55037e-14 0)
(2.9 7.71885e-14 0)
(2.9 3.19786e-14 0)
(2.9 -2.45928e-15 0)
(2.9 -3.09376e-15 0)
(2.9 2.15479e-15 0)
(2.9 4.21051e-14 0)
(2.9 8.10642e-14 0)
(2.9 7.94686e-14 0)
(2.9 1.08978e-13 0)
(2.9 3.4984e-15 0)
(2.9 7.04486e-14 0)
(2.9 5.36366e-14 0)
(2.9 4.84816e-14 0)
(2.9 3.47452e-14 0)
(2.9 2.49571e-14 0)
(2.9 5.95037e-14 0)
(2.9 7.48125e-14 0)
(2.9 1.75805e-14 0)
(2.9 -2.46638e-16 0)
(2.9 3.46115e-14 0)
(2.9 2.46938e-14 0)
(2.9 5.26678e-14 0)
(2.9 1.03427e-13 0)
(2.9 5.38671e-14 0)
(2.9 1.13361e-14 0)
(2.9 2.93351e-14 0)
(2.9 -8.3725e-15 0)
(2.9 8.11426e-14 0)
(2.9 1.13294e-13 0)
(2.9 9.32466e-14 0)
(2.9 -8.32791e-16 0)
(2.9 -5.78624e-16 0)
(2.9 -3.24765e-14 0)
(2.9 5.22834e-14 0)
(2.9 6.16644e-14 0)
(2.9 8.79967e-14 0)
(2.9 3.23663e-15 0)
(2.9 3.49331e-14 0)
(2.9 9.40166e-14 0)
(2.9 2.63565e-14 0)
(2.9 4.41033e-14 0)
(2.9 4.17626e-14 0)
(2.9 3.41393e-14 0)
(2.9 1.37604e-14 0)
(2.9 -5.61507e-14 0)
(2.9 -5.58812e-14 0)
(2.9 -1.05394e-13 0)
(2.9 -1.1013e-14 0)
(2.9 -3.14461e-15 0)
(2.9 1.10601e-14 0)
(2.9 9.59708e-14 0)
(2.9 4.90507e-14 0)
(2.9 8.67626e-14 0)
(2.9 -1.58075e-14 0)
(2.9 -4.06229e-14 0)
(2.9 -6.76834e-15 0)
(2.9 3.19737e-15 0)
(2.9 2.46102e-14 0)
(2.9 2.7365e-14 0)
(2.9 -5.77913e-14 0)
(2.9 3.91868e-14 0)
(2.9 1.11579e-14 0)
(2.9 -1.02428e-14 0)
(2.9 3.55581e-14 0)
(2.9 5.24021e-14 0)
(2.9 5.31335e-14 0)
(2.9 3.12235e-14 0)
(2.9 8.18468e-14 0)
(2.9 8.25621e-14 0)
(2.9 -1.00795e-14 0)
(2.9 4.13145e-14 0)
(2.9 5.88763e-14 0)
(2.9 3.10356e-14 0)
(2.9 1.79895e-14 0)
(2.9 1.22214e-15 0)
(2.9 8.06199e-14 0)
(2.9 -2.29224e-14 0)
(2.9 5.23939e-14 0)
(2.9 -3.30906e-14 0)
(2.9 -3.81998e-14 0)
(2.9 -8.33944e-15 0)
(2.9 3.25407e-14 0)
(2.9 1.14152e-13 0)
(2.9 4.73905e-14 0)
(2.9 2.35503e-15 0)
(2.9 8.41373e-14 0)
(2.9 4.39064e-14 0)
(2.9 4.17054e-14 0)
(2.9 7.9296e-14 0)
(2.9 -1.5738e-15 0)
(2.9 -3.71197e-14 0)
(2.9 -1.60238e-14 0)
(2.9 8.34233e-14 0)
(2.9 6.77021e-14 0)
(2.9 1.41732e-14 0)
(2.9 3.19069e-14 0)
(2.9 -3.34841e-14 0)
(2.9 6.7956e-15 0)
(2.9 4.12237e-14 0)
(2.9 8.59205e-15 0)
(2.9 3.78899e-14 0)
(2.9 4.54775e-14 0)
(2.9 2.93975e-14 0)
(2.9 3.66722e-14 0)
(2.9 1.36627e-14 0)
(2.9 -3.63396e-14 0)
(2.9 1.27737e-14 0)
(2.9 -2.77253e-14 0)
(2.9 5.32827e-15 0)
(2.9 7.15253e-15 0)
(2.9 1.01767e-13 0)
(2.9 3.81744e-14 0)
(2.9 1.43661e-13 0)
(2.9 7.38724e-14 0)
(2.9 -1.74536e-14 0)
(2.9 -3.71103e-15 0)
(2.9 5.6606e-15 0)
(2.9 -5.73184e-14 0)
(2.9 -5.63006e-14 0)
(2.9 -1.29264e-13 0)
(2.9 -2.02279e-14 0)
(2.9 3.30893e-14 0)
(2.9 3.71791e-14 0)
(2.9 3.69199e-14 0)
(2.9 5.57222e-14 0)
(2.9 6.0085e-14 0)
(2.9 6.16049e-15 0)
(2.9 5.23211e-14 0)
(2.9 -9.77175e-16 0)
(2.9 8.6071e-14 0)
(2.9 2.53333e-14 0)
(2.9 3.32544e-14 0)
(2.9 3.29089e-14 0)
(2.9 4.14432e-14 0)
(2.9 -2.93694e-14 0)
(2.9 6.67319e-14 0)
(2.9 1.36647e-14 0)
(2.9 2.349e-14 0)
(2.9 -1.07456e-14 0)
(2.9 -4.70584e-14 0)
(2.9 -2.96011e-14 0)
(2.9 7.82943e-14 0)
(2.9 9.32022e-14 0)
(2.9 3.26698e-14 0)
(2.9 -2.08578e-14 0)
(2.9 1.78807e-14 0)
(2.9 3.11787e-14 0)
(2.9 2.22837e-14 0)
(2.9 1.08828e-14 0)
(2.9 3.63898e-14 0)
(2.9 -1.02611e-14 0)
(2.9 -1.33922e-14 0)
(2.9 7.10951e-14 0)
(2.9 1.23245e-13 0)
(2.9 3.34899e-14 0)
(2.9 -1.43278e-14 0)
(2.9 1.06437e-15 0)
(2.9 -1.20648e-14 0)
(2.9 4.51453e-14 0)
(2.9 5.38158e-14 0)
(2.9 2.20414e-14 0)
(2.9 5.05899e-14 0)
(2.9 4.9298e-14 0)
(2.9 5.62135e-14 0)
(2.9 1.05497e-13 0)
(2.9 -1.04937e-14 0)
(2.9 1.23642e-13 0)
(2.9 2.82692e-14 0)
(2.9 -5.91164e-14 0)
(2.9 7.56286e-14 0)
(2.9 6.95575e-14 0)
(2.9 4.4391e-14 0)
(2.9 4.59892e-14 0)
(2.9 3.48528e-14 0)
(2.9 -7.13325e-14 0)
(2.9 3.40221e-14 0)
(2.9 -3.69639e-14 0)
(2.9 2.30437e-14 0)
(2.9 -7.58442e-14 0)
(2.9 -8.84339e-14 0)
(2.9 -4.41831e-14 0)
(2.9 -1.66005e-14 0)
(2.9 5.44765e-14 0)
(2.9 6.6785e-14 0)
(2.9 1.04481e-13 0)
(2.9 4.99348e-14 0)
(2.9 4.14046e-14 0)
(2.9 1.49873e-14 0)
(2.9 8.54666e-14 0)
(2.9 3.16004e-14 0)
(2.9 1.997e-14 0)
(2.9 -5.84895e-15 0)
(2.9 2.81255e-14 0)
(2.9 -2.06705e-14 0)
(2.9 -3.14979e-14 0)
(2.9 8.19075e-14 0)
(2.9 7.22312e-15 0)
(2.9 1.16198e-14 0)
(2.9 1.04389e-14 0)
(2.9 -2.67572e-14 0)
(2.9 3.69215e-14 0)
(2.9 5.04198e-14 0)
(2.9 3.17129e-14 0)
(2.9 8.19946e-15 0)
(2.9 3.09482e-14 0)
(2.9 -2.29348e-14 0)
(2.9 -5.37098e-15 0)
(2.9 -4.37874e-14 0)
(2.9 -5.94699e-14 0)
(2.9 -1.24751e-14 0)
(2.9 5.63501e-14 0)
(2.9 3.36824e-14 0)
(2.9 3.74528e-14 0)
(2.9 4.35157e-14 0)
(2.9 4.03543e-14 0)
(2.9 2.57094e-14 0)
(2.9 5.34708e-14 0)
(2.9 2.20029e-15 0)
(2.9 1.44799e-14 0)
(2.9 4.72405e-14 0)
(2.9 4.02162e-14 0)
(2.9 4.13933e-14 0)
(2.9 4.03234e-14 0)
(2.9 3.10881e-14 0)
(2.9 6.93975e-14 0)
(2.9 -2.70558e-14 0)
(2.9 5.16433e-14 0)
(2.9 -3.88584e-15 0)
(2.9 -5.3967e-14 0)
(2.9 4.48554e-15 0)
(2.9 1.10766e-14 0)
(2.9 1.88597e-14 0)
(2.9 1.67964e-15 0)
(2.9 6.09663e-15 0)
(2.9 -3.79377e-14 0)
(2.9 -4.08857e-14 0)
(2.9 -4.49668e-14 0)
(2.9 3.05615e-14 0)
(2.9 1.9824e-14 0)
(2.9 2.82978e-14 0)
(2.9 -1.15111e-14 0)
(2.9 -5.70702e-14 0)
(2.9 -9.02248e-15 0)
(2.9 4.92148e-14 0)
(2.9 2.54305e-14 0)
(2.9 -6.01177e-15 0)
(2.9 7.42948e-15 0)
(2.9 -7.16576e-15 0)
(2.9 6.07423e-14 0)
(2.9 2.56088e-14 0)
(2.9 -5.29858e-15 0)
(2.9 -5.5697e-14 0)
(2.9 1.9071e-14 0)
(2.9 -7.40709e-14 0)
(2.9 6.97784e-14 0)
(2.9 2.59585e-14 0)
(2.9 5.56872e-15 0)
(2.9 4.2124e-14 0)
(2.9 -1.45766e-14 0)
(2.9 2.76283e-14 0)
(2.9 1.34427e-14 0)
(2.9 -1.77315e-14 0)
(2.9 3.21248e-15 0)
(2.9 -2.28167e-15 0)
(2.9 2.36106e-14 0)
(2.9 -2.2269e-14 0)
(2.9 -1.24544e-14 0)
(2.9 -8.12312e-14 0)
(2.9 -5.28604e-14 0)
(2.9 -5.65461e-14 0)
(2.9 3.29353e-14 0)
(2.9 5.09561e-14 0)
(2.9 6.97277e-14 0)
(2.9 3.98612e-14 0)
(2.9 -9.4781e-15 0)
(2.9 -7.77888e-15 0)
(2.9 -1.09332e-14 0)
(2.9 4.74967e-17 0)
(2.9 -1.49608e-14 0)
(2.9 1.0467e-14 0)
(2.9 2.95251e-14 0)
(2.9 -3.74187e-15 0)
(2.9 3.13222e-15 0)
(2.9 -3.44545e-15 0)
(2.9 -5.37567e-15 0)
(2.9 -1.44256e-14 0)
(2.9 -7.86528e-15 0)
(2.9 -2.13419e-14 0)
(2.9 -2.99086e-14 0)
(2.9 -4.21531e-14 0)
(2.9 2.4053e-14 0)
(2.9 1.0207e-14 0)
(2.9 -1.33978e-14 0)
(2.9 -1.44386e-14 0)
(2.9 -3.62613e-14 0)
(2.9 2.53902e-14 0)
(2.9 -1.1935e-14 0)
(2.9 2.07402e-14 0)
(2.9 3.38887e-14 0)
(2.9 4.52528e-14 0)
(2.9 -1.73308e-14 0)
(2.9 -6.99626e-14 0)
(2.9 -8.87109e-14 0)
(2.9 -3.93129e-14 0)
(2.9 1.96363e-14 0)
(2.9 -5.58348e-14 0)
(2.9 -4.62691e-14 0)
(2.9 -3.84759e-14 0)
(2.9 3.02227e-14 0)
(2.9 2.14223e-14 0)
(2.9 -1.86256e-14 0)
(2.9 -1.49078e-14 0)
(2.9 8.113e-15 0)
(2.9 -4.59241e-15 0)
(2.9 6.02328e-14 0)
(2.9 3.66752e-14 0)
(2.9 6.85773e-14 0)
(2.9 -7.30666e-15 0)
(2.9 -2.92082e-14 0)
(2.9 -4.03238e-15 0)
(2.9 -1.99891e-14 0)
(2.9 -4.71806e-14 0)
(2.9 -2.08769e-14 0)
(2.9 2.081e-14 0)
(2.9 -5.07307e-14 0)
(2.9 -2.14186e-14 0)
(2.9 -6.42808e-14 0)
(2.9 -1.11936e-13 0)
(2.9 -6.76705e-14 0)
(2.9 -1.89951e-14 0)
(2.9 5.42644e-14 0)
(2.9 7.61722e-14 0)
(2.9 1.07434e-13 0)
(2.9 5.06166e-14 0)
(2.9 -2.5152e-14 0)
(2.9 -3.49013e-14 0)
(2.9 2.52946e-15 0)
(2.9 -6.01625e-14 0)
(2.9 -3.54107e-15 0)
(2.9 3.63815e-15 0)
(2.9 3.96638e-14 0)
(2.9 3.12295e-14 0)
(2.9 -6.77439e-15 0)
(2.9 -4.69454e-14 0)
(2.9 -4.24145e-14 0)
(2.9 4.09347e-15 0)
(2.9 -3.54599e-15 0)
(2.9 -4.00813e-14 0)
(2.9 4.27437e-15 0)
(2.9 -2.27265e-14 0)
(2.9 -2.024e-15 0)
(2.9 8.96403e-14 0)
(2.9 -1.26146e-14 0)
(2.9 2.27106e-14 0)
(2.9 2.10476e-14 0)
(2.9 3.31842e-14 0)
(2.9 9.77734e-15 0)
(2.9 1.61013e-14 0)
(2.9 4.33272e-14 0)
(2.9 2.90182e-14 0)
(2.9 -5.58817e-14 0)
(2.9 -7.91471e-14 0)
(2.9 -2.6423e-14 0)
(2.9 -8.12634e-14 0)
(2.9 6.24236e-14 0)
(2.9 -4.98023e-14 0)
(2.9 8.63448e-15 0)
(2.9 -6.30178e-14 0)
(2.9 -1.2923e-14 0)
(2.9 -7.55442e-15 0)
(2.9 2.0232e-14 0)
(2.9 6.5444e-14 0)
(2.9 1.20162e-14 0)
(2.9 -2.6222e-14 0)
(2.9 -2.36539e-14 0)
(2.9 1.99989e-15 0)
(2.9 1.46165e-14 0)
(2.9 -7.39531e-15 0)
(2.9 -1.73717e-14 0)
(2.9 -1.37202e-14 0)
(2.9 1.56392e-14 0)
(2.9 1.67225e-14 0)
(2.9 -7.61401e-15 0)
(2.9 2.35114e-15 0)
(2.9 -3.47267e-14 0)
(2.9 -1.72278e-14 0)
(2.9 -5.64255e-14 0)
(2.9 -5.43412e-14 0)
(2.9 -4.69721e-14 0)
(2.9 -1.03957e-14 0)
(2.9 5.26658e-14 0)
(2.9 9.07256e-14 0)
(2.9 4.93674e-14 0)
(2.9 -1.23033e-15 0)
(2.9 -1.29211e-14 0)
(2.9 -6.01055e-14 0)
(2.9 -2.15225e-14 0)
(2.9 -1.00145e-14 0)
(2.9 -3.3361e-14 0)
(2.9 -1.95319e-14 0)
(2.9 9.04263e-15 0)
(2.9 3.18719e-14 0)
(2.9 3.74825e-14 0)
(2.9 -2.09811e-14 0)
(2.9 -2.05492e-15 0)
(2.9 -8.74275e-15 0)
(2.9 3.02027e-14 0)
(2.9 -5.87184e-14 0)
(2.9 6.89154e-14 0)
(2.9 -2.21237e-14 0)
(2.9 -2.10112e-14 0)
(2.9 6.94436e-14 0)
(2.9 4.75317e-14 0)
(2.9 3.45342e-14 0)
(2.9 9.34544e-14 0)
(2.9 2.91949e-14 0)
(2.9 2.58789e-14 0)
(2.9 4.73067e-15 0)
(2.9 6.40475e-14 0)
(2.9 3.19974e-14 0)
(2.9 3.12412e-15 0)
(2.9 -2.0396e-14 0)
(2.9 -8.68821e-15 0)
(2.9 -7.19584e-14 0)
(2.9 -3.06113e-15 0)
(2.9 -4.6064e-14 0)
(2.9 2.80457e-14 0)
(2.9 -6.76528e-14 0)
(2.9 -4.8469e-14 0)
(2.9 -4.04911e-14 0)
(2.9 -7.76e-15 0)
(2.9 2.37734e-14 0)
(2.9 -2.63885e-14 0)
(2.9 -5.34445e-14 0)
(2.9 -2.96579e-14 0)
(2.9 -2.02498e-14 0)
(2.9 -5.49168e-14 0)
(2.9 -7.25406e-14 0)
(2.9 -6.64927e-14 0)
(2.9 -5.5015e-14 0)
(2.9 -1.77229e-14 0)
(2.9 -3.85847e-14 0)
(2.9 -7.00939e-14 0)
(2.9 -5.58748e-14 0)
(2.9 -1.30667e-14 0)
(2.9 -5.92814e-14 0)
(2.9 -1.23179e-14 0)
(2.9 6.10156e-14 0)
(2.9 -5.60018e-14 0)
(2.9 -2.57044e-14 0)
(2.9 2.24753e-14 0)
(2.9 5.93413e-14 0)
(2.9 1.9394e-14 0)
(2.9 1.55878e-14 0)
(2.9 1.46427e-14 0)
(2.9 -1.11697e-13 0)
(2.9 -3.83984e-14 0)
(2.9 -2.07544e-16 0)
(2.9 -9.49593e-14 0)
(2.9 -8.78695e-14 0)
(2.9 -2.68439e-14 0)
(2.9 -3.2817e-15 0)
(2.9 4.34544e-14 0)
(2.9 -4.54751e-14 0)
(2.9 1.73618e-14 0)
(2.9 4.2187e-14 0)
(2.9 3.68866e-14 0)
(2.9 -1.11401e-15 0)
(2.9 1.25531e-13 0)
(2.9 3.67768e-14 0)
(2.9 5.47728e-14 0)
(2.9 2.23099e-14 0)
(2.9 5.92863e-14 0)
(2.9 3.59609e-14 0)
(2.9 4.71048e-14 0)
(2.9 -7.01204e-14 0)
(2.9 -2.40422e-14 0)
(2.9 -2.05372e-14 0)
(2.9 3.78169e-14 0)
(2.9 3.15525e-14 0)
(2.9 5.88958e-14 0)
(2.9 3.17065e-14 0)
(2.9 1.65527e-14 0)
(2.9 2.39058e-14 0)
(2.9 -2.08958e-14 0)
(2.9 -1.44888e-14 0)
(2.9 -1.43047e-14 0)
(2.9 -8.92768e-14 0)
(2.9 -8.65958e-14 0)
(2.9 -5.51464e-14 0)
(2.9 -9.60396e-15 0)
(2.9 -2.73806e-15 0)
(2.9 2.24422e-14 0)
(2.9 1.01211e-14 0)
(2.9 -2.13012e-14 0)
(2.9 -8.52758e-14 0)
(2.9 -7.36821e-14 0)
(2.9 -9.4485e-14 0)
(2.9 -6.40116e-15 0)
(2.9 5.60569e-15 0)
(2.9 -1.55165e-14 0)
(2.9 -4.89654e-14 0)
(2.9 -6.4497e-14 0)
(2.9 -3.38843e-14 0)
(2.9 -3.47937e-15 0)
(2.9 -7.06954e-14 0)
(2.9 -1.50917e-14 0)
(2.9 1.1815e-13 0)
(2.9 -1.60227e-14 0)
(2.9 -2.28183e-14 0)
(2.9 5.56173e-14 0)
(2.9 1.81713e-14 0)
(2.9 2.48409e-15 0)
(2.9 6.67063e-15 0)
(2.9 -1.60589e-14 0)
(2.9 -8.30822e-14 0)
(2.9 -3.75813e-14 0)
(2.9 -5.52641e-15 0)
(2.9 -6.12816e-14 0)
(2.9 -1.09304e-14 0)
(2.9 -6.85242e-14 0)
(2.9 -3.50416e-14 0)
(2.9 -3.40743e-14 0)
(2.9 -6.6319e-14 0)
(2.9 4.01689e-14 0)
(2.9 1.43612e-13 0)
(2.9 5.25524e-14 0)
(2.9 3.6704e-16 0)
(2.9 4.55183e-14 0)
(2.9 -2.12462e-15 0)
(2.9 4.4586e-14 0)
(2.9 -8.43273e-15 0)
(2.9 2.73252e-15 0)
(2.9 1.1556e-14 0)
(2.9 1.75951e-14 0)
(2.9 -9.47663e-14 0)
(2.9 -4.48379e-14 0)
(2.9 -1.49237e-15 0)
(2.9 -1.33857e-14 0)
(2.9 1.11243e-14 0)
(2.9 2.02958e-14 0)
(2.9 7.18868e-15 0)
(2.9 -2.74799e-14 0)
(2.9 1.00766e-14 0)
(2.9 1.45919e-14 0)
(2.9 2.30116e-14 0)
(2.9 -2.27511e-14 0)
(2.9 -7.45363e-14 0)
(2.9 -7.60425e-14 0)
(2.9 -2.13638e-14 0)
(2.9 5.88245e-15 0)
(2.9 7.38199e-15 0)
(2.9 1.35878e-14 0)
(2.9 1.36458e-14 0)
(2.9 -1.46012e-14 0)
(2.9 -5.38656e-14 0)
(2.9 -4.74012e-14 0)
(2.9 -6.83252e-14 0)
(2.9 2.25035e-14 0)
(2.9 2.77739e-15 0)
(2.9 -7.79586e-15 0)
(2.9 -2.50829e-14 0)
(2.9 -4.1761e-14 0)
(2.9 -3.01116e-14 0)
(2.9 -5.44994e-15 0)
(2.9 -4.05526e-14 0)
(2.9 7.68724e-14 0)
(2.9 6.224e-14 0)
(2.9 6.39629e-15 0)
(2.9 -3.52305e-14 0)
(2.9 -2.36861e-14 0)
(2.9 5.70616e-16 0)
(2.9 -2.51802e-14 0)
(2.9 1.749e-14 0)
(2.9 -2.02813e-14 0)
(2.9 4.28238e-15 0)
(2.9 -5.14046e-15 0)
(2.9 1.34746e-14 0)
(2.9 -1.18153e-14 0)
(2.9 -1.26548e-14 0)
(2.9 -2.85808e-15 0)
(2.9 1.0446e-14 0)
(2.9 -3.0372e-14 0)
(2.9 -3.12952e-14 0)
(2.9 3.66946e-14 0)
(2.9 6.90957e-14 0)
(2.9 7.23333e-14 0)
(2.9 -6.53581e-15 0)
(2.9 1.57037e-15 0)
(2.9 -3.84414e-14 0)
(2.9 7.23833e-14 0)
(2.9 1.68539e-14 0)
(2.9 -1.04553e-14 0)
(2.9 -2.35759e-14 0)
(2.9 -4.15706e-14 0)
(2.9 -6.95444e-14 0)
(2.9 6.37482e-15 0)
(2.9 1.72097e-14 0)
(2.9 1.64614e-15 0)
(2.9 4.75756e-14 0)
(2.9 -1.49013e-14 0)
(2.9 -3.7039e-14 0)
(2.9 -3.33662e-14 0)
(2.9 1.2842e-14 0)
(2.9 -1.32493e-14 0)
(2.9 1.89092e-14 0)
(2.9 -4.47004e-14 0)
(2.9 1.97174e-14 0)
(2.9 7.51276e-15 0)
(2.9 -6.52553e-14 0)
(2.9 -1.95327e-14 0)
(2.9 -4.54461e-15 0)
(2.9 -4.76803e-15 0)
(2.9 1.64285e-14 0)
(2.9 -1.93647e-14 0)
(2.9 -4.96272e-14 0)
(2.9 -3.01488e-14 0)
(2.9 2.30496e-14 0)
(2.9 1.67515e-14 0)
(2.9 1.50301e-14 0)
(2.9 -1.05329e-14 0)
(2.9 -4.20715e-14 0)
(2.9 -3.52322e-14 0)
(2.9 -4.67058e-14 0)
(2.9 7.22388e-15 0)
(2.9 1.22506e-15 0)
(2.9 9.32968e-14 0)
(2.9 2.20498e-14 0)
(2.9 9.63259e-15 0)
(2.9 -2.3662e-14 0)
(2.9 -6.78102e-14 0)
(2.9 -1.99108e-15 0)
(2.9 -7.06434e-14 0)
(2.9 -1.03859e-14 0)
(2.9 7.17631e-15 0)
(2.9 5.10219e-14 0)
(2.9 1.37484e-14 0)
(2.9 -3.20339e-14 0)
(2.9 -8.3119e-14 0)
(2.9 -7.88583e-14 0)
(2.9 -1.95925e-14 0)
(2.9 -2.81098e-14 0)
(2.9 -4.74022e-14 0)
(2.9 2.96222e-14 0)
(2.9 7.46385e-15 0)
(2.9 5.01052e-14 0)
(2.9 7.00438e-14 0)
(2.9 1.2798e-14 0)
(2.9 -9.22847e-15 0)
(2.9 -1.8201e-14 0)
(2.9 2.61769e-14 0)
(2.9 -9.42407e-15 0)
(2.9 -2.02107e-14 0)
(2.9 -2.73414e-15 0)
(2.9 3.27275e-14 0)
(2.9 2.72867e-14 0)
(2.9 3.5499e-14 0)
(2.9 -3.68696e-14 0)
(2.9 1.15035e-14 0)
(2.9 -2.30457e-14 0)
(2.9 4.85286e-15 0)
(2.9 8.80014e-15 0)
(2.9 7.18923e-14 0)
(2.9 2.97073e-14 0)
(2.9 4.45836e-14 0)
(2.9 2.76546e-14 0)
(2.9 -1.20342e-14 0)
(2.9 2.98484e-14 0)
(2.9 -1.0121e-14 0)
(2.9 -5.59226e-14 0)
(2.9 -1.60444e-14 0)
(2.9 -3.5011e-14 0)
(2.9 4.23462e-14 0)
(2.9 3.03138e-14 0)
(2.9 6.12577e-15 0)
(2.9 -3.6944e-14 0)
(2.9 9.01072e-15 0)
(2.9 1.36965e-13 0)
(2.9 8.90203e-14 0)
(2.9 -8.46226e-15 0)
(2.9 -4.5183e-14 0)
(2.9 -8.02697e-14 0)
(2.9 -7.57902e-14 0)
(2.9 -3.79634e-14 0)
(2.9 4.03245e-14 0)
(2.9 1.02004e-13 0)
(2.9 4.67432e-14 0)
(2.9 -2.36413e-14 0)
(2.9 2.6977e-14 0)
(2.9 -1.04268e-14 0)
(2.9 -5.96293e-14 0)
(2.9 -6.68613e-14 0)
(2.9 -8.74049e-14 0)
(2.9 -8.55e-14 0)
(2.9 2.55402e-14 0)
(2.9 1.40003e-13 0)
(2.9 4.44633e-14 0)
(2.9 -3.73388e-15 0)
(2.9 -6.14094e-14 0)
(2.9 -9.5241e-14 0)
(2.9 -1.59287e-14 0)
(2.9 -5.987e-14 0)
(2.9 -1.45555e-14 0)
(2.9 7.22926e-14 0)
(2.9 -3.88703e-15 0)
(2.9 -1.19192e-14 0)
(2.9 4.17016e-14 0)
(2.9 3.44614e-14 0)
(2.9 -2.79957e-14 0)
(2.9 -2.52631e-14 0)
(2.9 -6.51807e-14 0)
(2.9 -4.15756e-14 0)
(2.9 -4.66981e-14 0)
(2.9 4.26215e-14 0)
(2.9 2.92321e-14 0)
(2.9 6.84365e-14 0)
(2.9 4.1997e-14 0)
(2.9 -2.86849e-14 0)
(2.9 5.11132e-14 0)
(2.9 2.96664e-14 0)
(2.9 -3.98762e-14 0)
(2.9 4.19272e-14 0)
(2.9 3.29958e-14 0)
(2.9 8.98364e-17 0)
(2.9 5.74093e-14 0)
(2.9 3.28862e-14 0)
(2.9 -6.60958e-16 0)
(2.9 1.6104e-14 0)
(2.9 -4.34118e-14 0)
(2.9 1.69056e-15 0)
(2.9 -7.70288e-15 0)
(2.9 -4.13627e-15 0)
(2.9 4.73781e-14 0)
(2.9 3.36577e-15 0)
(2.9 2.06677e-14 0)
(2.9 1.37611e-14 0)
(2.9 3.64397e-14 0)
(2.9 8.36029e-14 0)
(2.9 -7.71448e-15 0)
(2.9 1.24687e-14 0)
(2.9 -2.8111e-14 0)
(2.9 -1.01318e-13 0)
(2.9 -3.92331e-14 0)
(2.9 -3.72454e-14 0)
(2.9 -5.19841e-14 0)
(2.9 2.61848e-14 0)
(2.9 1.74191e-14 0)
(2.9 -6.3049e-14 0)
(2.9 -3.15854e-14 0)
(2.9 -6.15138e-14 0)
(2.9 -3.23428e-14 0)
(2.9 -7.34658e-14 0)
(2.9 -3.97113e-14 0)
(2.9 -6.70106e-14 0)
(2.9 4.93157e-14 0)
(2.9 9.19245e-14 0)
(2.9 1.75614e-14 0)
(2.9 3.24294e-14 0)
(2.9 3.72977e-15 0)
(2.9 -4.87813e-14 0)
(2.9 -6.30727e-14 0)
(2.9 6.90422e-15 0)
(2.9 2.28521e-14 0)
(2.9 6.22296e-14 0)
(2.9 2.53277e-14 0)
(2.9 -2.0081e-15 0)
(2.9 4.19327e-15 0)
(2.9 4.87098e-14 0)
(2.9 -1.36447e-14 0)
(2.9 4.48871e-14 0)
(2.9 -1.37204e-14 0)
(2.9 3.44886e-14 0)
(2.9 1.69043e-14 0)
(2.9 2.4528e-14 0)
(2.9 5.39927e-15 0)
(2.9 7.88773e-14 0)
(2.9 -2.95695e-15 0)
(2.9 -1.59891e-14 0)
(2.9 1.33249e-14 0)
(2.9 9.83123e-14 0)
(2.9 9.67147e-15 0)
(2.9 7.88385e-14 0)
(2.9 7.64083e-14 0)
(2.9 5.64377e-14 0)
(2.9 2.83247e-14 0)
(2.9 1.37631e-14 0)
(2.9 -2.52371e-14 0)
(2.9 1.95761e-14 0)
(2.9 -7.74072e-14 0)
(2.9 5.47341e-15 0)
(2.9 -3.52332e-15 0)
(2.9 2.01057e-14 0)
(2.9 9.60607e-15 0)
(2.9 -2.64108e-14 0)
(2.9 3.36556e-14 0)
(2.9 8.84215e-14 0)
(2.9 5.03255e-14 0)
(2.9 1.01998e-13 0)
(2.9 -4.68203e-14 0)
(2.9 -5.26932e-14 0)
(2.9 -5.68543e-14 0)
(2.9 -3.26627e-14 0)
(2.9 -3.89383e-14 0)
(2.9 -4.8475e-14 0)
(2.9 -9.10318e-14 0)
(2.9 9.69228e-15 0)
(2.9 -2.48855e-14 0)
(2.9 -4.92495e-14 0)
(2.9 -1.79896e-14 0)
(2.9 1.45639e-14 0)
(2.9 -5.23931e-14 0)
(2.9 -5.4615e-14 0)
(2.9 6.20136e-15 0)
(2.9 -5.24279e-14 0)
(2.9 -8.23055e-15 0)
(2.9 3.30179e-14 0)
(2.9 -2.03755e-14 0)
(2.9 -1.53197e-14 0)
(2.9 -4.21177e-14 0)
(2.9 -1.95376e-14 0)
(2.9 -4.15804e-14 0)
(2.9 1.12849e-14 0)
(2.9 4.57097e-15 0)
(2.9 1.31935e-14 0)
(2.9 3.12595e-14 0)
(2.9 2.3746e-14 0)
(2.9 -2.22163e-14 0)
(2.9 -3.54455e-14 0)
(2.9 2.11007e-15 0)
(2.9 7.07659e-14 0)
(2.9 8.74971e-14 0)
(2.9 5.03529e-14 0)
(2.9 9.68598e-14 0)
(2.9 -1.24185e-14 0)
(2.9 -5.97011e-15 0)
(2.9 7.00006e-14 0)
(2.9 7.2371e-15 0)
(2.9 2.80032e-14 0)
(2.9 -3.15515e-14 0)
(2.9 3.33345e-14 0)
(2.9 6.64043e-14 0)
(2.9 5.79255e-14 0)
(2.9 3.15382e-14 0)
(2.9 4.04401e-14 0)
(2.9 -1.86635e-14 0)
(2.9 -3.28448e-14 0)
(2.9 -6.51767e-15 0)
(2.9 2.05473e-14 0)
(2.9 -7.59015e-14 0)
(2.9 -5.56852e-14 0)
(2.9 -2.56575e-14 0)
(2.9 -1.14336e-14 0)
(2.9 -5.44923e-14 0)
(2.9 -3.98018e-15 0)
(2.9 -2.75458e-14 0)
(2.9 7.84674e-14 0)
(2.9 1.60448e-14 0)
(2.9 3.59297e-14 0)
(2.9 8.25438e-15 0)
(2.9 -3.32484e-14 0)
(2.9 1.38143e-14 0)
(2.9 6.66844e-14 0)
(2.9 -2.14603e-15 0)
(2.9 -1.13771e-14 0)
(2.9 7.87315e-15 0)
(2.9 3.37028e-16 0)
(2.9 -2.624e-14 0)
(2.9 -7.52543e-14 0)
(2.9 -6.79892e-14 0)
(2.9 1.14945e-13 0)
(2.9 8.95312e-16 0)
(2.9 -3.22057e-14 0)
(2.9 -5.95205e-14 0)
(2.9 -2.13783e-14 0)
(2.9 -4.95393e-14 0)
(2.9 -1.9965e-14 0)
(2.9 -7.93158e-14 0)
(2.9 -7.09136e-14 0)
(2.9 2.24946e-14 0)
(2.9 -7.51251e-14 0)
(2.9 1.16493e-14 0)
(2.9 -4.98577e-14 0)
(2.9 -7.59024e-14 0)
(2.9 -2.00295e-14 0)
(2.9 2.12849e-15 0)
(2.9 9.57483e-15 0)
(2.9 -4.30123e-14 0)
(2.9 -7.28931e-15 0)
(2.9 -3.21081e-14 0)
(2.9 3.42415e-14 0)
(2.9 2.82663e-14 0)
(2.9 7.16665e-14 0)
(2.9 3.27355e-14 0)
(2.9 6.73848e-14 0)
(2.9 7.35381e-14 0)
(2.9 2.03562e-14 0)
(2.9 1.42688e-15 0)
(2.9 -2.31872e-14 0)
(2.9 -1.12443e-14 0)
(2.9 -1.10183e-14 0)
(2.9 4.24484e-15 0)
(2.9 3.14773e-14 0)
(2.9 -4.97797e-16 0)
(2.9 1.13752e-14 0)
(2.9 -3.88342e-14 0)
(2.9 -7.40815e-15 0)
(2.9 -2.72899e-15 0)
(2.9 4.79876e-14 0)
(2.9 3.45365e-14 0)
(2.9 -1.22533e-13 0)
(2.9 -2.48075e-14 0)
(2.9 -1.32613e-14 0)
(2.9 -1.18206e-13 0)
(2.9 -2.5472e-15 0)
(2.9 -2.36323e-14 0)
(2.9 3.09941e-14 0)
(2.9 5.8327e-14 0)
(2.9 -3.83127e-15 0)
(2.9 -5.60082e-15 0)
(2.9 -1.34168e-16 0)
(2.9 5.82749e-14 0)
(2.9 7.16078e-14 0)
(2.9 1.8258e-14 0)
(2.9 -5.30136e-15 0)
(2.9 -2.15431e-14 0)
(2.9 -1.79134e-15 0)
(2.9 -2.66022e-14 0)
(2.9 -6.31642e-14 0)
(2.9 -3.3964e-14 0)
(2.9 3.17883e-14 0)
(2.9 3.36647e-14 0)