/*--------------------------------*- C++ -*----------------------------------*\
| =========                 |                                                 |
| \\      /  F ield         | OpenFOAM: The Open Source CFD Toolbox           |
|  \\    /   O peration     | Version:  2412                                  |
|   \\  /    A nd           | Website:  www.openfoam.com                      |
|    \\/     M anipulation  |                                                 |
\*---------------------------------------------------------------------------*/
FoamFile
{
    version     2.0;
    format      ascii;
    arch        "LSB;label=32;scalar=64";
    class       surfaceScalarField;
    location    "0.0200964";
    object      phiRhoY_Y_N2;
}
// * * * * * * * * * * * * * * * * * * * * * * * * * * * * * * * * * * * * * //

dimensions      [1 0 -1 0 0 0 0];

internalField   nonuniform List<scalar> 
99
(
20.2212
40.3571
60.503
80.6932
100.928
121.172
141.27
160.952
180.047
198.795
217.784
237.716
258.701
281.593
308.399
339.588
373.091
407.556
440.124
466.202
471.804
470.085
467.601
466.8
466.978
470.108
477.92
484.422
488.103
490.908
493.619
496.462
499.312
502.124
504.713
506.979
508.952
510.857
512.775
514.598
516.001
516.868
517.743
519.527
520.847
520.638
520.7
522.048
522.148
521.628
521.632
521.767
522.621
524.152
522.867
516.572
516.271
531.483
536.414
519.086
498.794
506.486
551.546
554.308
508.799
477.044
500.891
568.311
570.729
505.541
463.228
489.679
571.405
577.024
523.047
467.236
469.938
437.212
125.15
73.9947
89.1838
42.1897
28.174
46.1393
62.7609
64.8591
73.8917
82.9725
54.532
14.8284
-1.14509
-1.15182
-0.282331
-0.0198103
-0.000370141
-0.00030046
-4.6192e-05
-8.09356e-07
0
)
;

boundaryField
{
    sides
    {
        type            calculated;
        value           uniform 0;
    }
    empty
    {
        type            empty;
    }
}


// ************************************************************************* //
