/*--------------------------------*- C++ -*----------------------------------*\
| =========                 |                                                 |
| \\      /  F ield         | OpenFOAM: The Open Source CFD Toolbox           |
|  \\    /   O peration     | Version:  2412                                  |
|   \\  /    A nd           | Website:  www.openfoam.com                      |
|    \\/     M anipulation  |                                                 |
\*---------------------------------------------------------------------------*/
FoamFile
{
    version     2.0;
    format      ascii;
    arch        "LSB;label=32;scalar=64";
    class       volScalarField;
    location    "0.0475307";
    object      rhoY_Y_O2;
}
// * * * * * * * * * * * * * * * * * * * * * * * * * * * * * * * * * * * * * //

dimensions      [1 -3 0 0 0 0 0];

internalField   nonuniform List<scalar> 
100
(
0
0
0
0
0
0
0
0
0
0
0
0
0
0
0
0
0
0
0
0
0
0
0
0
0
0
0
0
0
0
0
0
0
0
0
0
0
0
0
0
0
0
0
0
0
0
0
0
0
-0.260087
-0.0564905
-0.0505481
-0.0423386
-0.0371498
-0.0338253
-0.0311765
-0.0289546
-0.0274083
-0.0261918
-0.0250441
-0.0242538
-0.0233338
-0.0227025
-0.0221232
-0.0215169
-0.0208477
-0.020244
-0.019835
-0.0195317
-0.0190487
-0.0186072
-0.0183383
-0.0181263
-0.0178723
-0.0176129
-0.0173114
-0.0170107
-0.0167312
-0.0164827
-0.0162798
-0.016074
-0.0155731
0.00750884
0.0850177
0.216064
0.382419
0.551477
0.642937
0.648247
0.593315
0.604859
0.591251
0.588905
0.589915
0.590746
0.591522
0.592619
0.593113
0.593343
0.593264
)
;

boundaryField
{
    sides
    {
        type            calculated;
        value           nonuniform List<scalar> 2(0.160357 0);
    }
    empty
    {
        type            empty;
    }
}


// ************************************************************************* //
