/*--------------------------------*- C++ -*----------------------------------*\
| =========                 |                                                 |
| \\      /  F ield         | OpenFOAM: The Open Source CFD Toolbox           |
|  \\    /   O peration     | Version:  2412                                  |
|   \\  /    A nd           | Website:  www.openfoam.com                      |
|    \\/     M anipulation  |                                                 |
\*---------------------------------------------------------------------------*/
FoamFile
{
    version     2.0;
    format      ascii;
    arch        "LSB;label=32;scalar=64";
    class       volScalarField;
    location    "0.0172119";
    object      p;
}
// * * * * * * * * * * * * * * * * * * * * * * * * * * * * * * * * * * * * * //

dimensions      [1 -1 -2 0 0 0 0];

internalField   nonuniform List<scalar> 
100
(
68714.1
69110.5
69318
70088.3
71170.8
72202.6
72717.9
72581.6
71667.9
70164.5
68570.5
67108
65787.7
64536.4
63294.9
62070.9
60837.3
59675.9
58438.6
57412
56086.5
55310.7
53765.8
53330.2
51524.6
51339
49476.3
49299.5
47609
47296.7
45839.4
45339.5
44124.8
43472.3
42422.7
41671.9
40754
39971.6
39120.1
38324.8
37526.6
36781.6
36034.5
35294.4
34568.6
33951.1
33302.3
32635.5
32175.6
31863.2
31648.9
31671.5
31666.5
31613
31862.6
32168.3
32005.7
31256.3
31177.2
32266.9
32678.1
31953.3
30741
30903.6
32695.9
32950.6
31966
30591.9
30844.6
32631.6
33013.9
32314
30769.9
30988
32047.3
33027.1
32821.1
31515.9
30927.1
31420.5
32543.9
32997.9
33149.3
33903.6
70559.7
103125
90659.5
84034
88285.7
91876.4
93374.6
94932.1
92881.7
96079.9
94398.6
96740.7
93256.3
93973.8
89776.7
89800.7
)
;

boundaryField
{
    sides
    {
        type            zeroGradient;
    }
    empty
    {
        type            empty;
    }
}


// ************************************************************************* //
