/*--------------------------------*- C++ -*----------------------------------*\
| =========                 |                                                 |
| \\      /  F ield         | OpenFOAM: The Open Source CFD Toolbox           |
|  \\    /   O peration     | Version:  2412                                  |
|   \\  /    A nd           | Website:  www.openfoam.com                      |
|    \\/     M anipulation  |                                                 |
\*---------------------------------------------------------------------------*/
FoamFile
{
    version     2.0;
    format      ascii;
    arch        "LSB;label=32;scalar=64";
    class       surfaceScalarField;
    location    "0.0170173";
    object      phiRhoY_Y_N2;
}
// * * * * * * * * * * * * * * * * * * * * * * * * * * * * * * * * * * * * * //

dimensions      [1 0 -1 0 0 0 0];

internalField   nonuniform List<scalar> 
99
(
32.7507
72.0972
117.746
168.278
215.623
254.609
282.856
297.029
305.379
314.255
325.119
336.891
348.349
359.124
369.328
379.1
388.501
397.511
406.126
414.342
422.124
429.59
436.588
443.389
449.805
455.845
461.74
467.073
472.212
477.082
481.654
485.858
489.858
493.762
497.282
500.421
503.358
506.341
509.065
511.188
512.884
514.783
517.002
518.316
518.887
520.186
521.415
520.904
520.887
522.44
524.614
524.694
521.077
514.761
515.734
533.936
537.552
518.271
497.31
505.807
552.289
555.274
511.958
478.948
497.635
564.221
567.675
515.231
472.251
484.453
561.3
573.976
533.534
479.334
477.37
524.275
572.396
562.331
496.538
467.18
480.986
545.542
587.52
554.62
174.825
32.9378
8.73094
36.0638
41.4129
23.5175
7.83611
1.90449
0.445343
0.0698702
0.00731494
0.000426405
9.02331e-06
0
0
)
;

boundaryField
{
    sides
    {
        type            calculated;
        value           uniform 0;
    }
    empty
    {
        type            empty;
    }
}


// ************************************************************************* //
