/*--------------------------------*- C++ -*----------------------------------*\
| =========                 |                                                 |
| \\      /  F ield         | OpenFOAM: The Open Source CFD Toolbox           |
|  \\    /   O peration     | Version:  2412                                  |
|   \\  /    A nd           | Website:  www.openfoam.com                      |
|    \\/     M anipulation  |                                                 |
\*---------------------------------------------------------------------------*/
FoamFile
{
    version     2.0;
    format      ascii;
    arch        "LSB;label=32;scalar=64";
    class       volVectorField;
    location    "0.0111205";
    object      U;
}
// * * * * * * * * * * * * * * * * * * * * * * * * * * * * * * * * * * * * * //

dimensions      [0 1 -1 0 0 0 0];

internalField   nonuniform List<vector> 
100
(
(4.46699e-14 0 0)
(9.61171e-14 0 0)
(3.79945e-14 0 0)
(-5.86047e-14 0 0)
(-7.3231e-15 0 0)
(6.78175e-14 0 0)
(1.29493e-13 0 0)
(7.6606e-13 0 0)
(2.65471e-10 0 0)
(1.11031e-07 0 0)
(3.10053e-05 0 0)
(0.00434053 0 0)
(0.213981 0 0)
(2.80086 0 0)
(11.7165 0 0)
(24.4011 0 0)
(35.9813 0 0)
(45.4523 0 0)
(53.6346 0 0)
(61.2701 0 0)
(68.732 0 0)
(76.1615 0 0)
(83.5966 0 0)
(91.0482 0 0)
(98.5081 0 0)
(106.005 0 0)
(113.474 0 0)
(121.064 0 0)
(128.431 0 0)
(136.217 0 0)
(143.239 0 0)
(151.345 0 0)
(158.026 0 0)
(166.077 0 0)
(173.207 0 0)
(180.283 0 0)
(188.215 0 0)
(194.896 0 0)
(202.734 0 0)
(209.617 0 0)
(217.62 0 0)
(224.65 0 0)
(232.373 0 0)
(239.648 0 0)
(246.981 0 0)
(254.408 0 0)
(262.098 0 0)
(269.105 0 0)
(273.506 0 0)
(278.427 0 0)
(283.956 0 0)
(287.815 0 0)
(287.443 0 0)
(279.621 0 0)
(277.862 0 0)
(283.32 0 0)
(289.416 0 0)
(287.865 0 0)
(276.716 0 0)
(275.752 0 0)
(283.24 0 0)
(289.534 0 0)
(288.062 0 0)
(277.644 0 0)
(277.483 0 0)
(281.769 0 0)
(288.743 0 0)
(288.755 0 0)
(281.535 0 0)
(277.141 0 0)
(278.075 0 0)
(283.471 0 0)
(287.985 0 0)
(284.725 0 0)
(284.351 0 0)
(278.973 0 0)
(278.15 0 0)
(280.04 0 0)
(281.833 0 0)
(281.462 0 0)
(282.431 0 0)
(284.339 0 0)
(283.246 0 0)
(278.753 0 0)
(277.706 0 0)
(277.98 0 0)
(278.98 0 0)
(282.025 0 0)
(283.373 0 0)
(283.254 0 0)
(281.896 0 0)
(280.037 0 0)
(279.8 0 0)
(280.395 0 0)
(282.723 0 0)
(284.525 0 0)
(282.562 0 0)
(245.053 0 0)
(66.624 0 0)
(56.4178 0 0)
)
;

boundaryField
{
    sides
    {
        type            fixedValue;
        value           uniform (0 0 0);
    }
    empty
    {
        type            empty;
    }
}


// ************************************************************************* //
