/*--------------------------------*- C++ -*----------------------------------*\
| =========                 |                                                 |
| \\      /  F ield         | OpenFOAM: The Open Source CFD Toolbox           |
|  \\    /   O peration     | Version:  2412                                  |
|   \\  /    A nd           | Website:  www.openfoam.com                      |
|    \\/     M anipulation  |                                                 |
\*---------------------------------------------------------------------------*/
FoamFile
{
    version     2.0;
    format      ascii;
    arch        "LSB;label=32;scalar=64";
    class       volScalarField;
    location    "0.005";
    object      p;
}
// * * * * * * * * * * * * * * * * * * * * * * * * * * * * * * * * * * * * * //

dimensions      [1 -1 -2 0 0 0 0];

internalField   nonuniform List<scalar> 
1800
(
1.00159
1.00474
1.00779
1.01067
1.01335
1.01579
1.01797
1.01989
1.02155
1.02297
1.02417
1.02517
1.026
1.02669
1.02724
1.02769
1.02805
1.02834
1.02857
1.02876
1.0289
1.02902
1.02911
1.02918
1.02923
1.02927
1.02931
1.02933
1.02935
1.02937
1.02938
1.02939
1.0294
1.0294
1.02941
1.02941
1.02941
1.02942
1.02942
1.02942
1.02942
1.02942
1.02942
1.02942
1.02942
1.02942
1.02942
1.02942
1.02942
1.02942
1.02943
1.02943
1.02943
1.02943
1.02943
1.02943
1.02943
1.02943
1.02943
1.02943
1.00162
1.00481
1.00791
1.01084
1.01355
1.01602
1.01823
1.02016
1.02184
1.02327
1.02448
1.02548
1.02632
1.027
1.02756
1.02801
1.02837
1.02866
1.02889
1.02908
1.02922
1.02934
1.02943
1.0295
1.02955
1.02959
1.02963
1.02965
1.02967
1.02969
1.0297
1.02971
1.02972
1.02972
1.02973
1.02973
1.02973
1.02974
1.02974
1.02974
1.02974
1.02974
1.02974
1.02974
1.02974
1.02974
1.02974
1.02974
1.02974
1.02974
1.02974
1.02975
1.02975
1.02975
1.02975
1.02975
1.02975
1.02975
1.02975
1.02975
1.00167
1.00496
1.00815
1.01116
1.01395
1.01648
1.01873
1.02071
1.02241
1.02387
1.02509
1.02611
1.02695
1.02764
1.0282
1.02865
1.02901
1.0293
1.02954
1.02972
1.02986
1.02998
1.03007
1.03014
1.03019
1.03024
1.03027
1.0303
1.03032
1.03033
1.03034
1.03035
1.03036
1.03037
1.03037
1.03037
1.03038
1.03038
1.03038
1.03038
1.03038
1.03038
1.03038
1.03038
1.03038
1.03038
1.03038
1.03038
1.03039
1.03039
1.03039
1.03039
1.03039
1.03039
1.03039
1.03039
1.03039
1.03039
1.03039
1.03039
1.00174
1.00519
1.00852
1.01166
1.01456
1.01718
1.01951
1.02154
1.02328
1.02477
1.02601
1.02705
1.0279
1.0286
1.02916
1.02962
1.02998
1.03027
1.03051
1.03069
1.03083
1.03095
1.03104
1.03111
1.03116
1.03121
1.03124
1.03126
1.03128
1.0313
1.03131
1.03132
1.03133
1.03133
1.03134
1.03134
1.03134
1.03135
1.03135
1.03135
1.03135
1.03135
1.03135
1.03135
1.03135
1.03135
1.03135
1.03135
1.03135
1.03135
1.03135
1.03136
1.03136
1.03136
1.03136
1.03136
1.03136
1.03136
1.03136
1.03136
1.00185
1.00551
1.00903
1.01234
1.01538
1.01813
1.02055
1.02266
1.02446
1.02599
1.02726
1.02832
1.02918
1.02989
1.03046
1.03092
1.03129
1.03158
1.03181
1.03199
1.03214
1.03225
1.03234
1.03241
1.03247
1.03251
1.03254
1.03257
1.03259
1.0326
1.03262
1.03262
1.03263
1.03264
1.03264
1.03264
1.03265
1.03265
1.03265
1.03265
1.03265
1.03265
1.03265
1.03265
1.03266
1.03266
1.03266
1.03266
1.03266
1.03266
1.03266
1.03266
1.03266
1.03266
1.03266
1.03266
1.03266
1.03266
1.03266
1.03266
1.00199
1.00591
1.00968
1.01321
1.01644
1.01934
1.02188
1.02408
1.02596
1.02753
1.02884
1.02992
1.03081
1.03152
1.0321
1.03257
1.03294
1.03323
1.03346
1.03365
1.03379
1.03391
1.03399
1.03406
1.03412
1.03416
1.03419
1.03422
1.03424
1.03425
1.03427
1.03427
1.03428
1.03429
1.03429
1.03429
1.0343
1.0343
1.0343
1.0343
1.0343
1.0343
1.0343
1.0343
1.0343
1.03431
1.03431
1.03431
1.03431
1.03431
1.03431
1.03431
1.03431
1.03431
1.03431
1.03431
1.03431
1.03431
1.03431
1.03432
1.00216
1.00641
1.01048
1.01428
1.01774
1.02082
1.02352
1.02583
1.02779
1.02942
1.03078
1.03189
1.03279
1.03352
1.03411
1.03457
1.03495
1.03524
1.03548
1.03566
1.0358
1.03592
1.03601
1.03607
1.03613
1.03617
1.0362
1.03623
1.03625
1.03626
1.03627
1.03628
1.03629
1.0363
1.0363
1.0363
1.03631
1.03631
1.03631
1.03631
1.03631
1.03631
1.03631
1.03631
1.03631
1.03631
1.03631
1.03631
1.03632
1.03632
1.03632
1.03632
1.03632
1.03632
1.03632
1.03632
1.03632
1.03632
1.03633
1.03633
1.00236
1.00701
1.01146
1.01558
1.01931
1.02261
1.02548
1.02792
1.02997
1.03168
1.03308
1.03422
1.03515
1.03589
1.03649
1.03696
1.03733
1.03763
1.03787
1.03805
1.03819
1.03831
1.03839
1.03846
1.03852
1.03856
1.03859
1.03861
1.03863
1.03865
1.03866
1.03867
1.03868
1.03868
1.03868
1.03869
1.03869
1.03869
1.03869
1.03869
1.0387
1.0387
1.0387
1.0387
1.0387
1.0387
1.0387
1.0387
1.0387
1.0387
1.0387
1.0387
1.0387
1.0387
1.03871
1.03871
1.03871
1.03871
1.03871
1.03871
1.00261
1.00774
1.01262
1.01712
1.02117
1.02473
1.02779
1.03038
1.03254
1.03432
1.03578
1.03695
1.0379
1.03866
1.03926
1.03974
1.04012
1.04042
1.04065
1.04083
1.04098
1.04109
1.04118
1.04124
1.0413
1.04134
1.04137
1.04139
1.04141
1.04143
1.04144
1.04145
1.04146
1.04146
1.04146
1.04147
1.04147
1.04147
1.04147
1.04147
1.04147
1.04148
1.04148
1.04148
1.04148
1.04148
1.04148
1.04148
1.04148
1.04148
1.04148
1.04148
1.04148
1.04148
1.04149
1.04149
1.04149
1.04149
1.04149
1.0415
1.00291
1.0086
1.01399
1.01894
1.02336
1.02721
1.03049
1.03324
1.03552
1.03738
1.03889
1.0401
1.04107
1.04185
1.04246
1.04294
1.04332
1.04362
1.04386
1.04404
1.04418
1.04429
1.04438
1.04445
1.0445
1.04454
1.04457
1.04459
1.04461
1.04463
1.04464
1.04465
1.04465
1.04466
1.04466
1.04466
1.04467
1.04467
1.04467
1.04467
1.04467
1.04467
1.04467
1.04467
1.04467
1.04467
1.04467
1.04468
1.04468
1.04468
1.04468
1.04468
1.04468
1.04468
1.04468
1.04469
1.04469
1.04469
1.04469
1.04469
1.00326
1.00962
1.01561
1.02107
1.0259
1.03008
1.0336
1.03653
1.03893
1.04088
1.04245
1.0437
1.0447
1.04548
1.0461
1.04659
1.04697
1.04727
1.0475
1.04769
1.04783
1.04794
1.04802
1.04809
1.04814
1.04818
1.04821
1.04823
1.04825
1.04827
1.04828
1.04829
1.04829
1.0483
1.0483
1.0483
1.04831
1.04831
1.04831
1.04831
1.04831
1.04831
1.04831
1.04831
1.04831
1.04831
1.04831
1.04831
1.04832
1.04832
1.04832
1.04832
1.04832
1.04832
1.04832
1.04833
1.04833
1.04833
1.04834
1.04834
1.00367
1.01081
1.0175
1.02355
1.02885
1.03338
1.03717
1.04029
1.04282
1.04486
1.04649
1.04778
1.0488
1.0496
1.05022
1.05071
1.0511
1.0514
1.05163
1.05181
1.05195
1.05206
1.05214
1.0522
1.05225
1.05229
1.05232
1.05235
1.05236
1.05238
1.05239
1.0524
1.0524
1.05241
1.05241
1.05241
1.05242
1.05242
1.05242
1.05242
1.05242
1.05242
1.05242
1.05242
1.05242
1.05242
1.05242
1.05242
1.05243
1.05243
1.05243
1.05243
1.05243
1.05243
1.05244
1.05244
1.05244
1.05245
1.05245
1.05245
1.00416
1.01221
1.0197
1.02642
1.03225
1.03717
1.04125
1.04457
1.04724
1.04936
1.05105
1.05237
1.05341
1.05422
1.05485
1.05535
1.05573
1.05602
1.05625
1.05643
1.05657
1.05668
1.05676
1.05682
1.05687
1.05691
1.05694
1.05696
1.05698
1.05699
1.057
1.05701
1.05702
1.05702
1.05702
1.05703
1.05703
1.05703
1.05703
1.05703
1.05703
1.05703
1.05704
1.05704
1.05704
1.05704
1.05704
1.05704
1.05704
1.05704
1.05704
1.05704
1.05705
1.05705
1.05705
1.05706
1.05706
1.05707
1.05707
1.05707
1.00473
1.01385
1.02227
1.02974
1.03615
1.04151
1.04588
1.04941
1.05221
1.05442
1.05616
1.05752
1.05857
1.05939
1.06003
1.06052
1.0609
1.0612
1.06142
1.0616
1.06174
1.06184
1.06192
1.06198
1.06203
1.06207
1.06209
1.06212
1.06213
1.06215
1.06216
1.06216
1.06217
1.06217
1.06218
1.06218
1.06218
1.06218
1.06219
1.06219
1.06219
1.06219
1.06219
1.06219
1.06219
1.06219
1.06219
1.06219
1.06219
1.06219
1.06219
1.0622
1.0622
1.0622
1.06221
1.06221
1.06222
1.06222
1.06223
1.06223
1.00541
1.01577
1.02527
1.03359
1.04064
1.04644
1.05113
1.05486
1.0578
1.0601
1.06188
1.06326
1.06433
1.06516
1.06579
1.06628
1.06666
1.06695
1.06718
1.06735
1.06748
1.06758
1.06766
1.06772
1.06777
1.0678
1.06783
1.06785
1.06787
1.06788
1.06789
1.0679
1.0679
1.06791
1.06791
1.06791
1.06791
1.06792
1.06792
1.06792
1.06792
1.06792
1.06792
1.06792
1.06792
1.06792
1.06792
1.06792
1.06792
1.06792
1.06793
1.06793
1.06793
1.06794
1.06794
1.06795
1.06795
1.06796
1.06797
1.06796
1.00622
1.01805
1.02877
1.03804
1.04578
1.05207
1.05707
1.061
1.06406
1.06643
1.06826
1.06966
1.07074
1.07156
1.07219
1.07268
1.07305
1.07334
1.07356
1.07372
1.07385
1.07395
1.07403
1.07408
1.07413
1.07416
1.07419
1.07421
1.07423
1.07424
1.07425
1.07425
1.07426
1.07426
1.07427
1.07427
1.07427
1.07427
1.07427
1.07427
1.07427
1.07428
1.07428
1.07428
1.07428
1.07428
1.07428
1.07428
1.07428
1.07428
1.07428
1.07429
1.07429
1.07429
1.0743
1.07431
1.07432
1.07432
1.07433
1.07433
1.00719
1.02074
1.03287
1.0432
1.05168
1.05846
1.06377
1.06789
1.07106
1.07349
1.07534
1.07676
1.07783
1.07866
1.07928
1.07976
1.08012
1.0804
1.08061
1.08078
1.0809
1.081
1.08107
1.08113
1.08117
1.0812
1.08123
1.08125
1.08126
1.08127
1.08128
1.08129
1.08129
1.0813
1.0813
1.0813
1.0813
1.08131
1.08131
1.08131
1.08131
1.08131
1.08131
1.08131
1.08131
1.08131
1.08131
1.08131
1.08131
1.08131
1.08132
1.08132
1.08132
1.08133
1.08134
1.08134
1.08135
1.08136
1.08137
1.08137
1.00836
1.02395
1.0377
1.0492
1.05845
1.06572
1.07133
1.07562
1.07887
1.08134
1.08321
1.08462
1.08569
1.0865
1.08712
1.08758
1.08794
1.08821
1.08841
1.08857
1.08869
1.08878
1.08885
1.0889
1.08895
1.08898
1.089
1.08902
1.08903
1.08904
1.08905
1.08906
1.08906
1.08907
1.08907
1.08907
1.08907
1.08907
1.08908
1.08908
1.08908
1.08908
1.08908
1.08908
1.08908
1.08908
1.08908
1.08908
1.08908
1.08908
1.08909
1.08909
1.08909
1.0891
1.08911
1.08912
1.08913
1.08914
1.08916
1.08915
1.00979
1.02781
1.04341
1.05618
1.06624
1.07397
1.07984
1.08426
1.08758
1.09007
1.09193
1.09333
1.09438
1.09518
1.09577
1.09623
1.09657
1.09683
1.09702
1.09717
1.09729
1.09737
1.09744
1.09749
1.09753
1.09756
1.09758
1.0976
1.09761
1.09762
1.09763
1.09764
1.09764
1.09764
1.09765
1.09765
1.09765
1.09765
1.09765
1.09765
1.09765
1.09765
1.09765
1.09765
1.09765
1.09766
1.09766
1.09766
1.09766
1.09766
1.09766
1.09767
1.09767
1.09768
1.09769
1.0977
1.09771
1.09773
1.09775
1.09775
1.01155
1.03249
1.05021
1.06434
1.07519
1.08336
1.08944
1.09395
1.09729
1.09976
1.1016
1.10297
1.104
1.10476
1.10534
1.10577
1.1061
1.10635
1.10653
1.10667
1.10678
1.10686
1.10692
1.10697
1.10701
1.10704
1.10706
1.10707
1.10708
1.10709
1.1071
1.10711
1.10711
1.10711
1.10712
1.10712
1.10712
1.10712
1.10712
1.10712
1.10712
1.10712
1.10712
1.10712
1.10712
1.10712
1.10713
1.10713
1.10713
1.10713
1.10713
1.10713
1.10714
1.10715
1.10716
1.10717
1.10719
1.10721
1.10724
1.10725
1.01377
1.03825
1.05837
1.07392
1.08553
1.09405
1.10026
1.10479
1.10811
1.11054
1.11233
1.11365
1.11463
1.11537
1.11591
1.11632
1.11663
1.11686
1.11704
1.11717
1.11727
1.11734
1.1174
1.11745
1.11748
1.1175
1.11752
1.11754
1.11755
1.11756
1.11757
1.11757
1.11757
1.11758
1.11758
1.11758
1.11758
1.11758
1.11758
1.11758
1.11759
1.11759
1.11759
1.11759
1.11759
1.11759
1.11759
1.11759
1.11759
1.11759
1.11759
1.1176
1.1176
1.11761
1.11762
1.11764
1.11766
1.11769
1.11773
1.11775
1.01662
1.0454
1.06822
1.0852
1.09745
1.1062
1.11245
1.11693
1.12016
1.12251
1.12422
1.12548
1.12641
1.12709
1.1276
1.12799
1.12827
1.12849
1.12865
1.12877
1.12886
1.12893
1.12898
1.12902
1.12905
1.12908
1.12909
1.12911
1.12912
1.12913
1.12913
1.12914
1.12914
1.12914
1.12914
1.12915
1.12915
1.12915
1.12915
1.12915
1.12915
1.12915
1.12915
1.12915
1.12915
1.12915
1.12915
1.12915
1.12915
1.12916
1.12916
1.12916
1.12917
1.12917
1.12919
1.12921
1.12923
1.12927
1.12933
1.12936
1.02037
1.05443
1.08019
1.09849
1.1112
1.12
1.12615
1.13048
1.13357
1.13578
1.13739
1.13856
1.13942
1.14005
1.14052
1.14087
1.14113
1.14132
1.14147
1.14158
1.14166
1.14172
1.14177
1.14181
1.14183
1.14185
1.14187
1.14188
1.14189
1.1419
1.1419
1.14191
1.14191
1.14191
1.14191
1.14192
1.14192
1.14192
1.14192
1.14192
1.14192
1.14192
1.14192
1.14192
1.14192
1.14192
1.14192
1.14192
1.14192
1.14193
1.14193
1.14193
1.14194
1.14194
1.14196
1.14198
1.14201
1.14206
1.14213
1.14218
1.02548
1.06597
1.09474
1.11409
1.12696
1.13558
1.14146
1.14554
1.1484
1.15044
1.1519
1.15296
1.15374
1.15431
1.15473
1.15504
1.15527
1.15544
1.15557
1.15567
1.15574
1.1558
1.15584
1.15587
1.15589
1.15591
1.15593
1.15594
1.15594
1.15595
1.15596
1.15596
1.15596
1.15596
1.15597
1.15597
1.15597
1.15597
1.15597
1.15597
1.15597
1.15597
1.15597
1.15597
1.15597
1.15597
1.15597
1.15597
1.15597
1.15597
1.15598
1.15598
1.15598
1.15599
1.15601
1.15603
1.15606
1.15612
1.1562
1.15626
1.03271
1.08085
1.11241
1.13227
1.14484
1.15299
1.15842
1.16211
1.16468
1.16649
1.16778
1.16871
1.16939
1.16988
1.17025
1.17052
1.17072
1.17087
1.17098
1.17106
1.17112
1.17117
1.17121
1.17123
1.17125
1.17127
1.17128
1.17129
1.1713
1.1713
1.17131
1.17131
1.17131
1.17131
1.17131
1.17132
1.17132
1.17132
1.17132
1.17132
1.17132
1.17132
1.17132
1.17132
1.17132
1.17132
1.17132
1.17132
1.17132
1.17132
1.17132
1.17133
1.17133
1.17134
1.17135
1.17137
1.17141
1.17147
1.17155
1.17162
1.04345
1.10023
1.13369
1.15316
1.16485
1.17217
1.17693
1.18013
1.18232
1.18386
1.18495
1.18574
1.1863
1.18672
1.18702
1.18724
1.18741
1.18753
1.18762
1.18769
1.18774
1.18778
1.18781
1.18784
1.18785
1.18786
1.18787
1.18788
1.18789
1.18789
1.18789
1.1879
1.1879
1.1879
1.1879
1.1879
1.1879
1.1879
1.1879
1.1879
1.1879
1.1879
1.18791
1.18791
1.18791
1.18791
1.18791
1.18791
1.18791
1.18791
1.18791
1.18791
1.18792
1.18792
1.18793
1.18795
1.18799
1.18804
1.18812
1.18818
1.06032
1.12556
1.15898
1.17673
1.18682
1.19294
1.19684
1.19942
1.20118
1.2024
1.20327
1.20389
1.20433
1.20466
1.2049
1.20507
1.2052
1.2053
1.20537
1.20542
1.20547
1.2055
1.20552
1.20554
1.20555
1.20556
1.20557
1.20557
1.20558
1.20558
1.20558
1.20558
1.20559
1.20559
1.20559
1.20559
1.20559
1.20559
1.20559
1.20559
1.20559
1.20559
1.20559
1.20559
1.20559
1.20559
1.20559
1.20559
1.20559
1.20559
1.20559
1.2056
1.2056
1.2056
1.20561
1.20563
1.20566
1.2057
1.20576
1.20581
1.08909
1.15949
1.18951
1.20388
1.21163
1.2162
1.21907
1.22095
1.22223
1.22311
1.22374
1.22418
1.2245
1.22473
1.22491
1.22503
1.22512
1.22519
1.22524
1.22528
1.22531
1.22533
1.22535
1.22536
1.22537
1.22538
1.22538
1.22539
1.22539
1.22539
1.22539
1.22539
1.2254
1.2254
1.2254
1.2254
1.2254
1.2254
1.2254
1.2254
1.2254
1.2254
1.2254
1.2254
1.2254
1.2254
1.2254
1.2254
1.2254
1.2254
1.2254
1.2254
1.2254
1.22541
1.22541
1.22543
1.22545
1.22548
1.22552
1.22555
1.96059
2.08812
2.13043
2.14854
2.15783
2.16317
2.16647
2.16861
2.17005
2.17104
2.17173
2.17222
2.17258
2.17283
2.17302
2.17315
2.17325
2.17333
2.17338
2.17343
2.17346
2.17348
2.1735
2.17351
2.17352
2.17353
2.17353
2.17354
2.17354
2.17354
2.17354
2.17355
2.17355
2.17355
2.17355
2.17355
2.17355
2.17355
2.17355
2.17355
2.17355
2.17355
2.17355
2.17355
2.17355
2.17355
2.17355
2.17355
2.17355
2.17355
2.17355
2.17355
2.17355
2.17356
2.17356
2.17357
2.17359
2.17362
2.17367
2.17371
0.358232
0.332205
0.326234
0.324145
0.323261
0.322843
0.322633
0.322523
0.322465
0.322434
0.322418
0.322409
0.322405
0.322403
0.322402
0.322402
0.322402
0.322403
0.322403
0.322404
0.322404
0.322404
0.322404
0.322405
0.322405
0.322405
0.322405
0.322405
0.322405
0.322405
0.322405
0.322405
0.322405
0.322405
0.322405
0.322405
0.322405
0.322405
0.322405
0.322405
0.322405
0.322405
0.322405
0.322405
0.322405
0.322405
0.322405
0.322405
0.322405
0.322405
0.322405
0.322405
0.322405
0.322404
0.322403
0.322402
0.322401
0.322399
0.322397
0.326043
)
;

boundaryField
{
    top
    {
        type            zeroGradient;
    }
    inlet
    {
        type            fixedValue;
        value           uniform 1;
    }
    outlet
    {
        type            zeroGradient;
    }
    bottom
    {
        type            symmetryPlane;
    }
    frontAndBack
    {
        type            empty;
    }
}


// ************************************************************************* //
