/*--------------------------------*- C++ -*----------------------------------*\
| =========                 |                                                 |
| \\      /  F ield         | OpenFOAM: The Open Source CFD Toolbox           |
|  \\    /   O peration     | Version:  2412                                  |
|   \\  /    A nd           | Website:  www.openfoam.com                      |
|    \\/     M anipulation  |                                                 |
\*---------------------------------------------------------------------------*/
FoamFile
{
    version     2.0;
    format      ascii;
    arch        "LSB;label=32;scalar=64";
    class       volScalarField;
    location    "0.005";
    object      p;
}
// * * * * * * * * * * * * * * * * * * * * * * * * * * * * * * * * * * * * * //

dimensions      [1 -1 -2 0 0 0 0];

internalField   nonuniform List<scalar> 
1800
(
1.00365
1.01087
1.01791
1.02469
1.03114
1.03718
1.04277
1.04787
1.05247
1.05658
1.06023
1.06343
1.06622
1.06865
1.07074
1.07254
1.07408
1.0754
1.07651
1.07746
1.07826
1.07894
1.07951
1.07999
1.08039
1.08073
1.08101
1.08125
1.08144
1.08161
1.08175
1.08186
1.08196
1.08204
1.0821
1.08216
1.0822
1.08224
1.08227
1.0823
1.08232
1.08234
1.08236
1.08237
1.08238
1.08239
1.0824
1.0824
1.08241
1.08242
1.08242
1.08243
1.08243
1.08244
1.08244
1.08245
1.08245
1.08246
1.08247
1.08247
1.00368
1.01095
1.01805
1.02488
1.03137
1.03744
1.04306
1.04818
1.05279
1.05692
1.06057
1.06378
1.06658
1.069
1.0711
1.0729
1.07443
1.07575
1.07686
1.07781
1.07861
1.07928
1.07985
1.08033
1.08073
1.08107
1.08135
1.08159
1.08178
1.08195
1.08209
1.0822
1.0823
1.08237
1.08244
1.0825
1.08254
1.08258
1.08261
1.08264
1.08266
1.08268
1.08269
1.08271
1.08272
1.08273
1.08274
1.08274
1.08275
1.08276
1.08276
1.08277
1.08277
1.08278
1.08278
1.08279
1.08279
1.0828
1.0828
1.08281
1.00374
1.01112
1.01832
1.02525
1.03182
1.03796
1.04363
1.04879
1.05344
1.05759
1.06125
1.06447
1.06727
1.0697
1.0718
1.07359
1.07513
1.07644
1.07755
1.0785
1.0793
1.07997
1.08053
1.08101
1.08141
1.08175
1.08203
1.08226
1.08246
1.08262
1.08276
1.08287
1.08297
1.08305
1.08311
1.08317
1.08321
1.08325
1.08328
1.08331
1.08333
1.08335
1.08336
1.08338
1.08339
1.0834
1.08341
1.08341
1.08342
1.08343
1.08343
1.08344
1.08344
1.08345
1.08345
1.08346
1.08347
1.08347
1.08348
1.08348
1.00383
1.01138
1.01874
1.02581
1.0325
1.03875
1.04449
1.04972
1.05441
1.05859
1.06228
1.06551
1.06832
1.07075
1.07285
1.07464
1.07618
1.07748
1.07859
1.07953
1.08033
1.081
1.08156
1.08203
1.08243
1.08277
1.08304
1.08328
1.08347
1.08364
1.08377
1.08388
1.08398
1.08406
1.08412
1.08418
1.08422
1.08426
1.08429
1.08432
1.08434
1.08436
1.08437
1.08439
1.0844
1.08441
1.08441
1.08442
1.08443
1.08443
1.08444
1.08445
1.08445
1.08446
1.08446
1.08447
1.08447
1.08448
1.08449
1.08449
1.00395
1.01173
1.0193
1.02656
1.03342
1.0398
1.04566
1.05097
1.05572
1.05994
1.06366
1.0669
1.06972
1.07216
1.07425
1.07605
1.07758
1.07888
1.07998
1.08092
1.08171
1.08237
1.08293
1.0834
1.0838
1.08413
1.0844
1.08464
1.08483
1.08499
1.08513
1.08524
1.08533
1.08541
1.08547
1.08553
1.08557
1.08561
1.08564
1.08567
1.08569
1.08571
1.08572
1.08573
1.08574
1.08575
1.08576
1.08577
1.08578
1.08578
1.08579
1.08579
1.0858
1.08581
1.08581
1.08582
1.08582
1.08583
1.08583
1.08584
1.00411
1.01218
1.02002
1.02753
1.03459
1.04114
1.04713
1.05254
1.05737
1.06164
1.06539
1.06866
1.07149
1.07393
1.07602
1.07781
1.07934
1.08063
1.08173
1.08266
1.08344
1.0841
1.08466
1.08512
1.08551
1.08584
1.08611
1.08634
1.08653
1.08669
1.08683
1.08694
1.08703
1.08711
1.08717
1.08722
1.08727
1.0873
1.08733
1.08736
1.08738
1.0874
1.08741
1.08743
1.08744
1.08745
1.08745
1.08746
1.08747
1.08747
1.08748
1.08749
1.08749
1.0875
1.0875
1.08751
1.08752
1.08752
1.08753
1.08753
1.0043
1.01273
1.02091
1.02871
1.03602
1.04278
1.04893
1.05446
1.05938
1.06371
1.0675
1.07078
1.07363
1.07607
1.07816
1.07994
1.08146
1.08275
1.08384
1.08476
1.08553
1.08619
1.08673
1.08719
1.08758
1.0879
1.08817
1.0884
1.08859
1.08875
1.08888
1.08899
1.08908
1.08915
1.08922
1.08927
1.08931
1.08935
1.08938
1.0894
1.08942
1.08944
1.08946
1.08947
1.08948
1.08949
1.0895
1.0895
1.08951
1.08952
1.08952
1.08953
1.08953
1.08954
1.08955
1.08955
1.08956
1.08957
1.08957
1.08957
1.00454
1.0134
1.02197
1.03012
1.03773
1.04473
1.05107
1.05674
1.06175
1.06615
1.06998
1.07329
1.07614
1.07859
1.08067
1.08245
1.08396
1.08523
1.08631
1.08722
1.08799
1.08864
1.08918
1.08963
1.09001
1.09033
1.0906
1.09082
1.091
1.09116
1.09129
1.09139
1.09148
1.09156
1.09162
1.09167
1.09171
1.09175
1.09178
1.0918
1.09183
1.09184
1.09186
1.09187
1.09188
1.09189
1.0919
1.0919
1.09191
1.09192
1.09192
1.09193
1.09194
1.09194
1.09195
1.09196
1.09196
1.09197
1.09198
1.09198
1.00481
1.01419
1.02323
1.03179
1.03974
1.04702
1.05357
1.05939
1.06451
1.06898
1.07285
1.07619
1.07905
1.08149
1.08357
1.08534
1.08684
1.0881
1.08917
1.09007
1.09082
1.09146
1.09199
1.09244
1.09281
1.09313
1.09339
1.09361
1.09379
1.09394
1.09407
1.09417
1.09426
1.09433
1.09439
1.09444
1.09448
1.09452
1.09455
1.09457
1.09459
1.09461
1.09462
1.09464
1.09465
1.09465
1.09466
1.09467
1.09468
1.09468
1.09469
1.09469
1.0947
1.09471
1.09472
1.09472
1.09473
1.09474
1.09475
1.09474
1.00514
1.01511
1.0247
1.03373
1.04208
1.04966
1.05645
1.06244
1.06768
1.07222
1.07614
1.07949
1.08236
1.0848
1.08687
1.08863
1.09011
1.09136
1.09241
1.0933
1.09404
1.09467
1.09519
1.09563
1.096
1.0963
1.09656
1.09677
1.09695
1.0971
1.09722
1.09732
1.09741
1.09748
1.09754
1.09759
1.09763
1.09766
1.09769
1.09772
1.09774
1.09775
1.09777
1.09778
1.09779
1.0978
1.0978
1.09781
1.09782
1.09782
1.09783
1.09784
1.09784
1.09785
1.09786
1.09787
1.09788
1.09788
1.09789
1.09789
1.00552
1.01619
1.0264
1.03598
1.04477
1.0527
1.05974
1.06591
1.07127
1.07589
1.07985
1.08322
1.08609
1.08853
1.09059
1.09233
1.09379
1.09502
1.09606
1.09693
1.09766
1.09827
1.09878
1.09921
1.09957
1.09987
1.10012
1.10033
1.1005
1.10065
1.10077
1.10087
1.10095
1.10102
1.10108
1.10112
1.10116
1.1012
1.10123
1.10125
1.10127
1.10128
1.1013
1.10131
1.10132
1.10133
1.10133
1.10134
1.10135
1.10135
1.10136
1.10137
1.10137
1.10138
1.10139
1.1014
1.10141
1.10142
1.10143
1.10142
1.00597
1.01744
1.02838
1.03857
1.04786
1.05617
1.06348
1.06984
1.07532
1.08001
1.08401
1.0874
1.09027
1.09269
1.09473
1.09645
1.09789
1.0991
1.10012
1.10097
1.10169
1.10229
1.10279
1.1032
1.10355
1.10384
1.10409
1.10429
1.10446
1.1046
1.10472
1.10481
1.10489
1.10496
1.10502
1.10506
1.1051
1.10513
1.10516
1.10518
1.1052
1.10522
1.10523
1.10524
1.10525
1.10526
1.10527
1.10527
1.10528
1.10529
1.10529
1.1053
1.10531
1.10532
1.10532
1.10533
1.10534
1.10535
1.10536
1.10536
1.00649
1.0189
1.03067
1.04155
1.05139
1.0601
1.0677
1.07426
1.07986
1.08462
1.08864
1.09204
1.0949
1.0973
1.09932
1.10102
1.10243
1.10362
1.10462
1.10545
1.10615
1.10673
1.10721
1.10762
1.10796
1.10824
1.10848
1.10867
1.10883
1.10897
1.10908
1.10918
1.10926
1.10932
1.10938
1.10942
1.10946
1.10949
1.10951
1.10954
1.10955
1.10957
1.10958
1.10959
1.1096
1.10961
1.10962
1.10962
1.10963
1.10964
1.10964
1.10965
1.10966
1.10967
1.10968
1.10969
1.1097
1.10971
1.10972
1.10971
1.0071
1.02059
1.03331
1.04497
1.05541
1.06456
1.07246
1.0792
1.08492
1.08974
1.09378
1.09718
1.10002
1.1024
1.10438
1.10605
1.10744
1.1086
1.10957
1.11037
1.11105
1.11161
1.11209
1.11248
1.11281
1.11308
1.11331
1.11349
1.11365
1.11378
1.11389
1.11398
1.11406
1.11412
1.11417
1.11422
1.11425
1.11428
1.11431
1.11433
1.11434
1.11436
1.11437
1.11438
1.11439
1.1144
1.1144
1.11441
1.11442
1.11442
1.11443
1.11444
1.11445
1.11446
1.11447
1.11448
1.11449
1.1145
1.11451
1.11451
1.00781
1.02257
1.03637
1.0489
1.05999
1.0696
1.0778
1.08473
1.09054
1.0954
1.09946
1.10284
1.10565
1.10799
1.10994
1.11157
1.11292
1.11405
1.11499
1.11577
1.11643
1.11697
1.11742
1.1178
1.11812
1.11838
1.1186
1.11878
1.11893
1.11906
1.11916
1.11925
1.11932
1.11938
1.11943
1.11947
1.11951
1.11953
1.11956
1.11958
1.11959
1.11961
1.11962
1.11963
1.11964
1.11965
1.11965
1.11966
1.11966
1.11967
1.11968
1.11969
1.11969
1.1197
1.11971
1.11973
1.11974
1.11975
1.11977
1.11976
1.00865
1.02488
1.03992
1.05342
1.06521
1.07529
1.08378
1.09088
1.09678
1.10166
1.10571
1.10905
1.11182
1.11412
1.11602
1.1176
1.11892
1.12001
1.12092
1.12167
1.1223
1.12282
1.12326
1.12362
1.12392
1.12417
1.12438
1.12455
1.1247
1.12482
1.12492
1.125
1.12507
1.12513
1.12517
1.12521
1.12525
1.12527
1.1253
1.12531
1.12533
1.12534
1.12535
1.12536
1.12537
1.12538
1.12539
1.12539
1.1254
1.1254
1.12541
1.12542
1.12543
1.12544
1.12545
1.12546
1.12548
1.1255
1.12551
1.12551
1.00965
1.02761
1.04407
1.05863
1.07116
1.08172
1.09049
1.09773
1.10368
1.10856
1.11257
1.11587
1.11858
1.12082
1.12266
1.12419
1.12546
1.12651
1.12738
1.1281
1.1287
1.1292
1.12962
1.12996
1.13025
1.13049
1.13068
1.13085
1.13099
1.1311
1.13119
1.13127
1.13134
1.13139
1.13144
1.13147
1.13151
1.13153
1.13155
1.13157
1.13159
1.1316
1.13161
1.13162
1.13162
1.13163
1.13164
1.13164
1.13165
1.13166
1.13166
1.13167
1.13168
1.13169
1.1317
1.13172
1.13174
1.13175
1.13178
1.13178
1.01086
1.03086
1.04894
1.06468
1.07797
1.08898
1.098
1.10534
1.1113
1.11615
1.1201
1.12332
1.12596
1.12812
1.1299
1.13137
1.13258
1.13358
1.13441
1.1351
1.13567
1.13614
1.13654
1.13686
1.13713
1.13736
1.13755
1.1377
1.13783
1.13794
1.13803
1.1381
1.13816
1.13821
1.13825
1.13829
1.13832
1.13834
1.13836
1.13838
1.13839
1.13841
1.13842
1.13842
1.13843
1.13844
1.13844
1.13845
1.13845
1.13846
1.13847
1.13847
1.13848
1.13849
1.13851
1.13853
1.13855
1.13857
1.1386
1.1386
1.01233
1.03477
1.05472
1.07172
1.08579
1.09721
1.10641
1.11379
1.11972
1.12449
1.12834
1.13147
1.13401
1.13609
1.13779
1.13919
1.14034
1.14128
1.14207
1.14272
1.14325
1.1437
1.14407
1.14437
1.14462
1.14484
1.14501
1.14516
1.14528
1.14538
1.14546
1.14553
1.14559
1.14563
1.14567
1.14571
1.14573
1.14575
1.14577
1.14579
1.1458
1.14581
1.14582
1.14583
1.14584
1.14584
1.14585
1.14585
1.14586
1.14586
1.14587
1.14588
1.14589
1.1459
1.14591
1.14593
1.14596
1.14598
1.14602
1.14604
1.01415
1.03954
1.06163
1.07997
1.09477
1.10654
1.11584
1.12318
1.12901
1.13366
1.13738
1.14037
1.1428
1.14477
1.14638
1.14769
1.14877
1.14966
1.15039
1.151
1.1515
1.15191
1.15225
1.15254
1.15277
1.15297
1.15313
1.15326
1.15338
1.15347
1.15354
1.15361
1.15366
1.15371
1.15374
1.15377
1.1538
1.15382
1.15383
1.15385
1.15386
1.15387
1.15388
1.15389
1.15389
1.1539
1.1539
1.15391
1.15391
1.15392
1.15393
1.15393
1.15394
1.15395
1.15397
1.15399
1.15401
1.15405
1.1541
1.15413
1.01644
1.04544
1.06996
1.08968
1.10513
1.11711
1.12638
1.1336
1.13925
1.14371
1.14726
1.15009
1.15237
1.15421
1.15571
1.15694
1.15794
1.15876
1.15943
1.15999
1.16045
1.16083
1.16115
1.16141
1.16162
1.1618
1.16195
1.16207
1.16218
1.16226
1.16233
1.16239
1.16244
1.16248
1.16251
1.16254
1.16256
1.16258
1.1626
1.16261
1.16262
1.16263
1.16264
1.16264
1.16265
1.16265
1.16266
1.16266
1.16267
1.16267
1.16268
1.16269
1.16269
1.16271
1.16272
1.16274
1.16277
1.16282
1.16288
1.16293
1.01936
1.05277
1.08001
1.10106
1.11699
1.12901
1.13811
1.14508
1.15047
1.15468
1.15799
1.16063
1.16274
1.16444
1.16581
1.16693
1.16785
1.16859
1.16921
1.16972
1.17013
1.17048
1.17076
1.171
1.17119
1.17135
1.17149
1.1716
1.17169
1.17177
1.17183
1.17188
1.17193
1.17196
1.17199
1.17202
1.17204
1.17206
1.17207
1.17208
1.17209
1.1721
1.17211
1.17211
1.17212
1.17212
1.17213
1.17213
1.17214
1.17214
1.17214
1.17215
1.17216
1.17217
1.17218
1.17221
1.17224
1.17229
1.17236
1.17243
1.02313
1.06189
1.09203
1.11424
1.1304
1.14222
1.15097
1.15756
1.16258
1.16647
1.16951
1.17191
1.17383
1.17536
1.1766
1.17761
1.17843
1.1791
1.17965
1.1801
1.18047
1.18078
1.18103
1.18124
1.18141
1.18156
1.18168
1.18178
1.18186
1.18193
1.18198
1.18203
1.18207
1.1821
1.18212
1.18215
1.18216
1.18218
1.18219
1.1822
1.18221
1.18222
1.18223
1.18223
1.18224
1.18224
1.18224
1.18225
1.18225
1.18225
1.18226
1.18226
1.18227
1.18228
1.1823
1.18232
1.18235
1.1824
1.18248
1.18253
1.02811
1.07322
1.10624
1.12925
1.14526
1.15659
1.16479
1.17085
1.17543
1.17893
1.18165
1.18379
1.18549
1.18685
1.18794
1.18882
1.18954
1.19013
1.19061
1.191
1.19133
1.19159
1.19182
1.192
1.19215
1.19227
1.19238
1.19246
1.19253
1.19259
1.19264
1.19268
1.19271
1.19274
1.19277
1.19278
1.1928
1.19281
1.19282
1.19283
1.19284
1.19285
1.19285
1.19286
1.19286
1.19287
1.19287
1.19287
1.19288
1.19288
1.19288
1.19289
1.19289
1.1929
1.19292
1.19294
1.19297
1.19301
1.19307
1.19311
1.03499
1.08742
1.12291
1.14608
1.16144
1.17195
1.17938
1.18478
1.18881
1.19187
1.19424
1.19609
1.19755
1.19872
1.19965
1.20041
1.20102
1.20152
1.20193
1.20227
1.20254
1.20277
1.20296
1.20311
1.20324
1.20335
1.20343
1.20351
1.20357
1.20362
1.20366
1.20369
1.20372
1.20374
1.20376
1.20378
1.20379
1.2038
1.20381
1.20382
1.20383
1.20383
1.20384
1.20384
1.20384
1.20385
1.20385
1.20385
1.20386
1.20386
1.20386
1.20387
1.20387
1.20388
1.20389
1.20391
1.20394
1.20397
1.20401
1.20402
1.04512
1.10556
1.14245
1.16478
1.17884
1.18815
1.19458
1.19919
1.2026
1.20517
1.20714
1.20868
1.20989
1.21086
1.21163
1.21225
1.21276
1.21317
1.21351
1.21378
1.21401
1.2142
1.21435
1.21448
1.21458
1.21467
1.21474
1.2148
1.21485
1.21489
1.21492
1.21495
1.21497
1.21499
1.21501
1.21502
1.21503
1.21504
1.21505
1.21506
1.21506
1.21507
1.21507
1.21507
1.21508
1.21508
1.21508
1.21508
1.21508
1.21509
1.21509
1.21509
1.2151
1.2151
1.21511
1.21513
1.21515
1.21517
1.2152
1.2152
1.06104
1.12909
1.16531
1.18539
1.19739
1.20509
1.2103
1.214
1.2167
1.21874
1.22029
1.2215
1.22245
1.22321
1.22381
1.2243
1.22469
1.22501
1.22528
1.22549
1.22567
1.22581
1.22593
1.22603
1.22611
1.22618
1.22624
1.22628
1.22632
1.22635
1.22638
1.2264
1.22642
1.22643
1.22645
1.22646
1.22646
1.22647
1.22648
1.22648
1.22649
1.22649
1.22649
1.2265
1.2265
1.2265
1.2265
1.2265
1.2265
1.22651
1.22651
1.22651
1.22651
1.22652
1.22653
1.22654
1.22655
1.22656
1.22658
1.22657
1.08825
1.16078
1.19306
1.20928
1.21851
1.22427
1.22812
1.23083
1.2328
1.23427
1.23539
1.23626
1.23695
1.23749
1.23792
1.23827
1.23855
1.23878
1.23897
1.23913
1.23925
1.23936
1.23944
1.23951
1.23957
1.23962
1.23966
1.23969
1.23972
1.23974
1.23976
1.23977
1.23979
1.2398
1.23981
1.23981
1.23982
1.23983
1.23983
1.23983
1.23984
1.23984
1.23984
1.23984
1.23984
1.23985
1.23985
1.23985
1.23985
1.23985
1.23985
1.23985
1.23986
1.23986
1.23986
1.23987
1.23988
1.23989
1.23989
1.23988
2.39465
2.56718
2.62697
2.65368
2.66805
2.67676
2.68247
2.68643
2.68928
2.6914
2.693
2.69423
2.6952
2.69596
2.69657
2.69705
2.69745
2.69776
2.69802
2.69823
2.69841
2.69855
2.69866
2.69876
2.69884
2.6989
2.69896
2.699
2.69904
2.69907
2.6991
2.69912
2.69913
2.69915
2.69916
2.69917
2.69918
2.69919
2.69919
2.6992
2.6992
2.6992
2.69921
2.69921
2.69921
2.69921
2.69921
2.69921
2.69922
2.69922
2.69922
2.69922
2.69922
2.69922
2.69923
2.69924
2.69924
2.69925
2.69925
2.69922
-0.113025
-0.17031
-0.184986
-0.190776
-0.193648
-0.195275
-0.196272
-0.196917
-0.197349
-0.197648
-0.197859
-0.198011
-0.198123
-0.198206
-0.198269
-0.198317
-0.198354
-0.198383
-0.198405
-0.198423
-0.198437
-0.198449
-0.198458
-0.198465
-0.198471
-0.198475
-0.198479
-0.198482
-0.198485
-0.198487
-0.198488
-0.19849
-0.198491
-0.198492
-0.198493
-0.198493
-0.198494
-0.198494
-0.198494
-0.198495
-0.198495
-0.198495
-0.198495
-0.198495
-0.198496
-0.198496
-0.198496
-0.198496
-0.198496
-0.198497
-0.198497
-0.198498
-0.198499
-0.198501
-0.198502
-0.198505
-0.198508
-0.198511
-0.198515
-0.194875
)
;

boundaryField
{
    top
    {
        type            zeroGradient;
    }
    inlet
    {
        type            fixedValue;
        value           uniform 1;
    }
    outlet
    {
        type            zeroGradient;
    }
    bottom
    {
        type            symmetryPlane;
    }
    frontAndBack
    {
        type            empty;
    }
}


// ************************************************************************* //
