/*--------------------------------*- C++ -*----------------------------------*\
| =========                 |                                                 |
| \\      /  F ield         | OpenFOAM: The Open Source CFD Toolbox           |
|  \\    /   O peration     | Version:  2412                                  |
|   \\  /    A nd           | Website:  www.openfoam.com                      |
|    \\/     M anipulation  |                                                 |
\*---------------------------------------------------------------------------*/
FoamFile
{
    version     2.0;
    format      ascii;
    arch        "LSB;label=32;scalar=64";
    class       volScalarField;
    location    "0.005";
    object      p;
}
// * * * * * * * * * * * * * * * * * * * * * * * * * * * * * * * * * * * * * //

dimensions      [1 -1 -2 0 0 0 0];

internalField   nonuniform List<scalar> 
1800
(
1.00157
1.00468
1.00769
1.01054
1.01319
1.0156
1.01775
1.01963
1.02127
1.02266
1.02384
1.02482
1.02564
1.0263
1.02684
1.02728
1.02764
1.02792
1.02814
1.02832
1.02846
1.02857
1.02866
1.02872
1.02878
1.02882
1.02885
1.02888
1.02889
1.02891
1.02892
1.02893
1.02894
1.02894
1.02895
1.02895
1.02895
1.02895
1.02895
1.02896
1.02896
1.02896
1.02896
1.02896
1.02896
1.02896
1.02896
1.02896
1.02896
1.02896
1.02896
1.02896
1.02896
1.02896
1.02896
1.02896
1.02896
1.02896
1.02896
1.02896
1.0016
1.00476
1.00782
1.01071
1.01339
1.01583
1.018
1.01991
1.02156
1.02296
1.02415
1.02514
1.02595
1.02662
1.02716
1.0276
1.02796
1.02824
1.02846
1.02864
1.02878
1.02889
1.02898
1.02905
1.0291
1.02914
1.02917
1.0292
1.02922
1.02923
1.02924
1.02925
1.02926
1.02926
1.02927
1.02927
1.02927
1.02927
1.02928
1.02928
1.02928
1.02928
1.02928
1.02928
1.02928
1.02928
1.02928
1.02928
1.02928
1.02928
1.02928
1.02928
1.02928
1.02928
1.02928
1.02928
1.02928
1.02929
1.02929
1.02929
1.00165
1.00491
1.00806
1.01104
1.01379
1.01629
1.01851
1.02046
1.02213
1.02356
1.02476
1.02576
1.02658
1.02726
1.02781
1.02825
1.0286
1.02888
1.02911
1.02929
1.02943
1.02954
1.02962
1.02969
1.02974
1.02978
1.02982
1.02984
1.02986
1.02988
1.02989
1.0299
1.0299
1.02991
1.02991
1.02991
1.02992
1.02992
1.02992
1.02992
1.02992
1.02992
1.02992
1.02992
1.02992
1.02993
1.02993
1.02993
1.02993
1.02993
1.02993
1.02993
1.02993
1.02993
1.02993
1.02993
1.02993
1.02993
1.02993
1.02993
1.00173
1.00514
1.00843
1.01154
1.0144
1.01699
1.01929
1.02129
1.02301
1.02447
1.02569
1.02671
1.02754
1.02822
1.02877
1.02922
1.02957
1.02986
1.03008
1.03026
1.0304
1.03051
1.0306
1.03066
1.03072
1.03076
1.03079
1.03081
1.03083
1.03085
1.03086
1.03087
1.03088
1.03088
1.03089
1.03089
1.03089
1.03089
1.03089
1.03089
1.0309
1.0309
1.0309
1.0309
1.0309
1.0309
1.0309
1.0309
1.0309
1.0309
1.0309
1.0309
1.0309
1.0309
1.0309
1.0309
1.0309
1.0309
1.0309
1.03091
1.00183
1.00545
1.00894
1.01222
1.01523
1.01794
1.02034
1.02241
1.02419
1.02569
1.02695
1.02798
1.02883
1.02952
1.03008
1.03053
1.03088
1.03117
1.0314
1.03157
1.03171
1.03182
1.03191
1.03198
1.03203
1.03207
1.0321
1.03213
1.03215
1.03216
1.03217
1.03218
1.03219
1.03219
1.0322
1.0322
1.0322
1.0322
1.0322
1.03221
1.03221
1.03221
1.03221
1.03221
1.03221
1.03221
1.03221
1.03221
1.03221
1.03221
1.03221
1.03221
1.03221
1.03221
1.03221
1.03221
1.03221
1.03222
1.03222
1.03222
1.00197
1.00586
1.0096
1.01309
1.01629
1.01916
1.02167
1.02385
1.02569
1.02725
1.02854
1.0296
1.03046
1.03117
1.03173
1.03218
1.03254
1.03283
1.03306
1.03323
1.03338
1.03348
1.03357
1.03364
1.03369
1.03373
1.03376
1.03379
1.0338
1.03382
1.03383
1.03384
1.03385
1.03385
1.03385
1.03386
1.03386
1.03386
1.03386
1.03386
1.03387
1.03387
1.03387
1.03387
1.03387
1.03387
1.03387
1.03387
1.03387
1.03387
1.03387
1.03387
1.03387
1.03387
1.03387
1.03387
1.03387
1.03388
1.03388
1.03388
1.00214
1.00636
1.0104
1.01417
1.0176
1.02066
1.02332
1.0256
1.02754
1.02915
1.03048
1.03157
1.03246
1.03317
1.03375
1.0342
1.03457
1.03485
1.03508
1.03526
1.0354
1.03551
1.03559
1.03566
1.03571
1.03575
1.03578
1.03581
1.03583
1.03584
1.03585
1.03586
1.03587
1.03587
1.03588
1.03588
1.03588
1.03588
1.03588
1.03589
1.03589
1.03589
1.03589
1.03589
1.03589
1.03589
1.03589
1.03589
1.03589
1.03589
1.03589
1.03589
1.03589
1.03589
1.03589
1.0359
1.0359
1.0359
1.0359
1.0359
1.00235
1.00697
1.01139
1.01548
1.01918
1.02246
1.02529
1.02771
1.02974
1.03142
1.0328
1.03392
1.03483
1.03556
1.03614
1.0366
1.03697
1.03726
1.03749
1.03766
1.0378
1.03791
1.038
1.03806
1.03811
1.03815
1.03819
1.03821
1.03823
1.03824
1.03825
1.03826
1.03827
1.03827
1.03828
1.03828
1.03828
1.03828
1.03828
1.03829
1.03829
1.03829
1.03829
1.03829
1.03829
1.03829
1.03829
1.03829
1.03829
1.03829
1.03829
1.03829
1.03829
1.03829
1.0383
1.0383
1.0383
1.0383
1.0383
1.0383
1.0026
1.0077
1.01256
1.01704
1.02106
1.02459
1.02762
1.03019
1.03232
1.03408
1.03551
1.03667
1.0376
1.03835
1.03894
1.03941
1.03977
1.04006
1.04029
1.04047
1.04061
1.04072
1.0408
1.04087
1.04092
1.04096
1.04099
1.04101
1.04103
1.04104
1.04105
1.04106
1.04107
1.04107
1.04108
1.04108
1.04108
1.04108
1.04108
1.04108
1.04109
1.04109
1.04109
1.04109
1.04109
1.04109
1.04109
1.04109
1.04109
1.04109
1.04109
1.04109
1.04109
1.04109
1.0411
1.0411
1.0411
1.0411
1.0411
1.0411
1.0029
1.00857
1.01394
1.01887
1.02326
1.02708
1.03034
1.03307
1.03532
1.03716
1.03865
1.03985
1.0408
1.04156
1.04216
1.04263
1.043
1.04329
1.04352
1.0437
1.04383
1.04394
1.04402
1.04409
1.04414
1.04418
1.04421
1.04423
1.04425
1.04426
1.04427
1.04428
1.04429
1.04429
1.0443
1.0443
1.0443
1.0443
1.0443
1.0443
1.04431
1.04431
1.04431
1.04431
1.04431
1.04431
1.04431
1.04431
1.04431
1.04431
1.04431
1.04431
1.04431
1.04432
1.04432
1.04432
1.04432
1.04432
1.04433
1.04433
1.00325
1.00959
1.01557
1.02102
1.02583
1.02998
1.03348
1.03638
1.03876
1.04069
1.04224
1.04347
1.04445
1.04522
1.04583
1.04631
1.04668
1.04697
1.0472
1.04737
1.04751
1.04762
1.0477
1.04776
1.04781
1.04785
1.04788
1.0479
1.04792
1.04793
1.04794
1.04795
1.04796
1.04796
1.04796
1.04797
1.04797
1.04797
1.04797
1.04797
1.04797
1.04797
1.04797
1.04798
1.04798
1.04798
1.04798
1.04798
1.04798
1.04798
1.04798
1.04798
1.04798
1.04798
1.04799
1.04799
1.04799
1.048
1.048
1.048
1.00367
1.0108
1.01748
1.02351
1.0288
1.03331
1.03708
1.04018
1.04269
1.0447
1.04631
1.04758
1.04858
1.04937
1.04998
1.05046
1.05084
1.05113
1.05135
1.05153
1.05166
1.05177
1.05185
1.05191
1.05196
1.052
1.05202
1.05205
1.05206
1.05208
1.05209
1.05209
1.0521
1.0521
1.05211
1.05211
1.05211
1.05211
1.05212
1.05212
1.05212
1.05212
1.05212
1.05212
1.05212
1.05212
1.05212
1.05212
1.05212
1.05212
1.05212
1.05213
1.05213
1.05213
1.05213
1.05214
1.05214
1.05214
1.05215
1.05215
1.00416
1.01221
1.0197
1.02641
1.03223
1.03713
1.04119
1.04449
1.04714
1.04924
1.05091
1.05221
1.05323
1.05403
1.05465
1.05513
1.05551
1.0558
1.05602
1.05619
1.05633
1.05643
1.05651
1.05657
1.05662
1.05665
1.05668
1.0567
1.05672
1.05673
1.05674
1.05675
1.05675
1.05676
1.05676
1.05676
1.05677
1.05677
1.05677
1.05677
1.05677
1.05677
1.05677
1.05677
1.05677
1.05677
1.05677
1.05677
1.05678
1.05678
1.05678
1.05678
1.05678
1.05678
1.05679
1.05679
1.0568
1.0568
1.05681
1.0568
1.00474
1.01386
1.02229
1.02976
1.03617
1.04151
1.04586
1.04937
1.05215
1.05435
1.05607
1.0574
1.05844
1.05925
1.05987
1.06036
1.06073
1.06101
1.06123
1.0614
1.06154
1.06164
1.06171
1.06177
1.06182
1.06186
1.06188
1.0619
1.06192
1.06193
1.06194
1.06195
1.06195
1.06196
1.06196
1.06196
1.06197
1.06197
1.06197
1.06197
1.06197
1.06197
1.06197
1.06197
1.06197
1.06197
1.06197
1.06197
1.06197
1.06198
1.06198
1.06198
1.06198
1.06198
1.06199
1.06199
1.062
1.062
1.06201
1.06201
1.00543
1.01581
1.02532
1.03365
1.04069
1.04649
1.05116
1.05488
1.05779
1.06007
1.06184
1.0632
1.06425
1.06507
1.06569
1.06617
1.06654
1.06682
1.06704
1.06721
1.06733
1.06743
1.06751
1.06757
1.06761
1.06764
1.06767
1.06769
1.06771
1.06772
1.06773
1.06773
1.06774
1.06774
1.06775
1.06775
1.06775
1.06775
1.06775
1.06775
1.06775
1.06776
1.06776
1.06776
1.06776
1.06776
1.06776
1.06776
1.06776
1.06776
1.06776
1.06776
1.06777
1.06777
1.06778
1.06778
1.06779
1.06779
1.0678
1.0678
1.00624
1.0181
1.02885
1.03814
1.04588
1.05216
1.05715
1.06107
1.06411
1.06646
1.06827
1.06965
1.07071
1.07153
1.07215
1.07262
1.07299
1.07326
1.07348
1.07364
1.07376
1.07386
1.07393
1.07399
1.07403
1.07407
1.07409
1.07411
1.07412
1.07414
1.07414
1.07415
1.07416
1.07416
1.07416
1.07417
1.07417
1.07417
1.07417
1.07417
1.07417
1.07417
1.07417
1.07417
1.07417
1.07417
1.07417
1.07417
1.07418
1.07418
1.07418
1.07418
1.07418
1.07419
1.07419
1.0742
1.07421
1.07422
1.07422
1.07422
1.00722
1.02082
1.03299
1.04335
1.05184
1.05861
1.06392
1.06802
1.07117
1.07358
1.07542
1.07681
1.07788
1.07868
1.0793
1.07977
1.08012
1.08039
1.0806
1.08076
1.08088
1.08097
1.08104
1.0811
1.08114
1.08117
1.08119
1.08121
1.08123
1.08124
1.08124
1.08125
1.08126
1.08126
1.08126
1.08126
1.08127
1.08127
1.08127
1.08127
1.08127
1.08127
1.08127
1.08127
1.08127
1.08127
1.08127
1.08127
1.08127
1.08128
1.08128
1.08128
1.08128
1.08129
1.0813
1.0813
1.08131
1.08132
1.08133
1.08133
1.0084
1.02405
1.03786
1.04939
1.05867
1.06594
1.07154
1.07581
1.07905
1.0815
1.08335
1.08475
1.0858
1.0866
1.0872
1.08766
1.08801
1.08827
1.08847
1.08862
1.08874
1.08883
1.08889
1.08895
1.08898
1.08901
1.08904
1.08905
1.08907
1.08908
1.08909
1.08909
1.0891
1.0891
1.0891
1.08911
1.08911
1.08911
1.08911
1.08911
1.08911
1.08911
1.08911
1.08911
1.08911
1.08911
1.08911
1.08911
1.08911
1.08912
1.08912
1.08912
1.08912
1.08913
1.08914
1.08915
1.08916
1.08917
1.08918
1.08918
1.00984
1.02794
1.04361
1.05643
1.06651
1.07426
1.08012
1.08453
1.08783
1.0903
1.09215
1.09353
1.09457
1.09535
1.09593
1.09638
1.09671
1.09696
1.09715
1.0973
1.09741
1.09749
1.09756
1.09761
1.09764
1.09767
1.09769
1.09771
1.09772
1.09773
1.09774
1.09774
1.09775
1.09775
1.09775
1.09776
1.09776
1.09776
1.09776
1.09776
1.09776
1.09776
1.09776
1.09776
1.09776
1.09776
1.09776
1.09776
1.09777
1.09777
1.09777
1.09777
1.09778
1.09778
1.09779
1.0978
1.09782
1.09783
1.09785
1.09785
1.01161
1.03265
1.05046
1.06464
1.07553
1.08371
1.08979
1.09428
1.09761
1.10007
1.10189
1.10324
1.10425
1.10501
1.10557
1.10599
1.10631
1.10655
1.10673
1.10687
1.10698
1.10706
1.10711
1.10716
1.1072
1.10722
1.10724
1.10726
1.10727
1.10728
1.10728
1.10729
1.10729
1.1073
1.1073
1.1073
1.1073
1.1073
1.1073
1.1073
1.10731
1.10731
1.10731
1.10731
1.10731
1.10731
1.10731
1.10731
1.10731
1.10731
1.10731
1.10732
1.10732
1.10733
1.10734
1.10735
1.10737
1.10739
1.10741
1.10742
1.01384
1.03843
1.05866
1.07427
1.08592
1.09445
1.10067
1.10519
1.10849
1.1109
1.11267
1.11398
1.11495
1.11567
1.11621
1.11661
1.11691
1.11714
1.11731
1.11743
1.11753
1.1176
1.11766
1.1177
1.11773
1.11776
1.11778
1.11779
1.1178
1.11781
1.11782
1.11782
1.11782
1.11783
1.11783
1.11783
1.11783
1.11783
1.11783
1.11783
1.11783
1.11784
1.11784
1.11784
1.11784
1.11784
1.11784
1.11784
1.11784
1.11784
1.11784
1.11785
1.11785
1.11786
1.11787
1.11788
1.1179
1.11793
1.11797
1.11799
1.0167
1.04561
1.06854
1.08559
1.09788
1.10665
1.1129
1.11737
1.12059
1.12292
1.12461
1.12586
1.12677
1.12745
1.12795
1.12832
1.1286
1.12881
1.12897
1.12908
1.12917
1.12924
1.12929
1.12933
1.12936
1.12938
1.1294
1.12941
1.12942
1.12943
1.12943
1.12944
1.12944
1.12944
1.12945
1.12945
1.12945
1.12945
1.12945
1.12945
1.12945
1.12945
1.12945
1.12945
1.12945
1.12945
1.12945
1.12945
1.12946
1.12946
1.12946
1.12946
1.12947
1.12947
1.12949
1.1295
1.12953
1.12956
1.12961
1.12964
1.02045
1.05465
1.08051
1.09889
1.11164
1.12047
1.12661
1.13094
1.13401
1.13621
1.1378
1.13896
1.1398
1.14043
1.14089
1.14123
1.14148
1.14167
1.14181
1.14192
1.142
1.14206
1.14211
1.14214
1.14217
1.14219
1.1422
1.14221
1.14222
1.14223
1.14223
1.14224
1.14224
1.14224
1.14225
1.14225
1.14225
1.14225
1.14225
1.14225
1.14225
1.14225
1.14225
1.14225
1.14225
1.14225
1.14225
1.14225
1.14225
1.14225
1.14226
1.14226
1.14226
1.14227
1.14228
1.1423
1.14233
1.14238
1.14244
1.14248
1.02555
1.06616
1.09504
1.11447
1.12737
1.13602
1.1419
1.14597
1.14882
1.15085
1.1523
1.15335
1.15411
1.15467
1.15509
1.15539
1.15562
1.15579
1.15591
1.15601
1.15608
1.15613
1.15617
1.1562
1.15622
1.15624
1.15625
1.15626
1.15627
1.15628
1.15628
1.15629
1.15629
1.15629
1.15629
1.15629
1.15629
1.15629
1.15629
1.1563
1.1563
1.1563
1.1563
1.1563
1.1563
1.1563
1.1563
1.1563
1.1563
1.1563
1.1563
1.1563
1.15631
1.15632
1.15633
1.15635
1.15638
1.15643
1.1565
1.15656
1.03275
1.08099
1.11265
1.13258
1.1452
1.15337
1.1588
1.16249
1.16505
1.16685
1.16813
1.16905
1.16972
1.1702
1.17056
1.17083
1.17102
1.17117
1.17127
1.17136
1.17142
1.17146
1.1715
1.17152
1.17154
1.17156
1.17157
1.17158
1.17158
1.17159
1.17159
1.1716
1.1716
1.1716
1.1716
1.1716
1.1716
1.1716
1.1716
1.1716
1.1716
1.1716
1.1716
1.1716
1.1716
1.1716
1.17161
1.17161
1.17161
1.17161
1.17161
1.17161
1.17162
1.17162
1.17163
1.17165
1.17169
1.17174
1.17181
1.17187
1.04344
1.10028
1.13383
1.15337
1.16511
1.17245
1.17722
1.18041
1.1826
1.18413
1.18521
1.18599
1.18655
1.18696
1.18725
1.18747
1.18764
1.18776
1.18785
1.18791
1.18796
1.188
1.18803
1.18805
1.18807
1.18808
1.18809
1.18809
1.1881
1.1881
1.18811
1.18811
1.18811
1.18811
1.18811
1.18811
1.18811
1.18812
1.18812
1.18812
1.18812
1.18812
1.18812
1.18812
1.18812
1.18812
1.18812
1.18812
1.18812
1.18812
1.18812
1.18812
1.18813
1.18813
1.18814
1.18816
1.18819
1.18824
1.18831
1.18836
1.06022
1.12549
1.159
1.17682
1.18695
1.19309
1.197
1.19958
1.20134
1.20256
1.20342
1.20403
1.20447
1.20479
1.20503
1.2052
1.20533
1.20542
1.20549
1.20554
1.20558
1.20561
1.20563
1.20565
1.20566
1.20567
1.20568
1.20568
1.20569
1.20569
1.20569
1.2057
1.2057
1.2057
1.2057
1.2057
1.2057
1.2057
1.2057
1.2057
1.2057
1.2057
1.2057
1.2057
1.2057
1.2057
1.2057
1.2057
1.2057
1.2057
1.20571
1.20571
1.20571
1.20571
1.20572
1.20574
1.20576
1.2058
1.20586
1.2059
1.08886
1.1593
1.18941
1.20385
1.21165
1.21624
1.21911
1.221
1.22227
1.22316
1.22378
1.22422
1.22453
1.22476
1.22493
1.22505
1.22514
1.22521
1.22526
1.2253
1.22533
1.22535
1.22536
1.22538
1.22538
1.22539
1.2254
1.2254
1.2254
1.22541
1.22541
1.22541
1.22541
1.22541
1.22541
1.22541
1.22541
1.22541
1.22541
1.22541
1.22541
1.22541
1.22541
1.22541
1.22541
1.22541
1.22541
1.22541
1.22541
1.22541
1.22541
1.22542
1.22542
1.22542
1.22543
1.22544
1.22545
1.22548
1.22552
1.22555
1.93096
2.05642
2.09814
2.11601
2.12518
2.13045
2.1337
2.13581
2.13722
2.13819
2.13887
2.13935
2.13969
2.13994
2.14012
2.14025
2.14035
2.14042
2.14048
2.14052
2.14054
2.14057
2.14058
2.1406
2.14061
2.14061
2.14062
2.14062
2.14062
2.14063
2.14063
2.14063
2.14063
2.14063
2.14063
2.14063
2.14063
2.14063
2.14063
2.14063
2.14063
2.14063
2.14063
2.14063
2.14063
2.14063
2.14063
2.14064
2.14064
2.14064
2.14064
2.14064
2.14064
2.14064
2.14065
2.14065
2.14067
2.1407
2.14073
2.14077
0.388909
0.364499
0.358917
0.356977
0.356165
0.355788
0.355601
0.355507
0.355459
0.355434
0.355422
0.355417
0.355415
0.355414
0.355415
0.355416
0.355416
0.355417
0.355418
0.355419
0.355419
0.355419
0.35542
0.35542
0.35542
0.35542
0.355421
0.355421
0.355421
0.355421
0.355421
0.355421
0.355421
0.355421
0.355421
0.355421
0.355421
0.355421
0.355421
0.355421
0.355421
0.355421
0.355421
0.355421
0.355421
0.355421
0.355421
0.355421
0.355421
0.355421
0.355421
0.355421
0.35542
0.35542
0.355419
0.355418
0.355416
0.355415
0.355413
0.359058
)
;

boundaryField
{
    top
    {
        type            zeroGradient;
    }
    inlet
    {
        type            fixedValue;
        value           uniform 1;
    }
    outlet
    {
        type            zeroGradient;
    }
    bottom
    {
        type            symmetryPlane;
    }
    frontAndBack
    {
        type            empty;
    }
}


// ************************************************************************* //
