/*--------------------------------*- C++ -*----------------------------------*\
| =========                 |                                                 |
| \\      /  F ield         | OpenFOAM: The Open Source CFD Toolbox           |
|  \\    /   O peration     | Version:  2412                                  |
|   \\  /    A nd           | Website:  www.openfoam.com                      |
|    \\/     M anipulation  |                                                 |
\*---------------------------------------------------------------------------*/
FoamFile
{
    version     2.0;
    format      ascii;
    arch        "LSB;label=32;scalar=64";
    class       volScalarField;
    location    "0.005";
    object      rho;
}
// * * * * * * * * * * * * * * * * * * * * * * * * * * * * * * * * * * * * * //

dimensions      [1 -3 0 0 0 0 0];

internalField   nonuniform List<scalar> 
1800
(
3.84857e-06
3.84857e-06
3.84857e-06
3.84858e-06
3.84858e-06
3.84858e-06
3.84858e-06
3.84858e-06
3.84858e-06
3.84858e-06
3.84858e-06
3.84858e-06
3.84858e-06
3.84858e-06
3.84858e-06
3.84858e-06
3.84858e-06
3.84858e-06
3.84858e-06
3.84858e-06
3.84858e-06
3.84858e-06
3.84858e-06
3.84858e-06
3.84858e-06
3.84858e-06
3.84858e-06
3.84858e-06
3.84858e-06
3.84858e-06
3.84858e-06
3.84858e-06
3.84858e-06
3.84858e-06
3.84858e-06
3.84858e-06
3.84858e-06
3.84858e-06
3.84858e-06
3.84858e-06
3.84858e-06
3.84858e-06
3.84858e-06
3.84858e-06
3.84858e-06
3.84858e-06
3.84858e-06
3.84858e-06
3.84858e-06
3.84858e-06
3.84858e-06
3.84858e-06
3.84858e-06
3.84858e-06
3.84858e-06
3.84858e-06
3.84858e-06
3.84858e-06
3.84858e-06
3.84859e-06
3.84857e-06
3.84857e-06
3.84858e-06
3.84858e-06
3.84858e-06
3.84858e-06
3.84858e-06
3.84858e-06
3.84858e-06
3.84858e-06
3.84859e-06
3.84859e-06
3.84859e-06
3.84859e-06
3.84859e-06
3.84859e-06
3.84859e-06
3.84859e-06
3.84859e-06
3.84859e-06
3.84859e-06
3.84859e-06
3.84859e-06
3.84859e-06
3.84859e-06
3.84859e-06
3.84859e-06
3.84859e-06
3.84859e-06
3.84859e-06
3.84859e-06
3.84859e-06
3.84859e-06
3.84859e-06
3.84859e-06
3.84859e-06
3.84859e-06
3.84859e-06
3.84859e-06
3.84859e-06
3.84859e-06
3.84859e-06
3.84859e-06
3.84859e-06
3.84859e-06
3.84859e-06
3.84859e-06
3.84859e-06
3.84859e-06
3.84859e-06
3.84859e-06
3.84859e-06
3.84859e-06
3.84859e-06
3.84859e-06
3.84859e-06
3.84859e-06
3.84859e-06
3.84859e-06
3.84859e-06
3.84857e-06
3.84858e-06
3.84858e-06
3.84858e-06
3.84859e-06
3.84859e-06
3.84859e-06
3.84859e-06
3.84859e-06
3.84859e-06
3.84859e-06
3.84859e-06
3.84859e-06
3.84859e-06
3.84859e-06
3.84859e-06
3.84859e-06
3.84859e-06
3.84859e-06
3.84859e-06
3.84859e-06
3.84859e-06
3.84859e-06
3.84859e-06
3.84859e-06
3.84859e-06
3.84859e-06
3.84859e-06
3.84859e-06
3.84859e-06
3.84859e-06
3.84859e-06
3.84859e-06
3.84859e-06
3.84859e-06
3.84859e-06
3.84859e-06
3.84859e-06
3.84859e-06
3.84859e-06
3.84859e-06
3.84859e-06
3.84859e-06
3.84859e-06
3.84859e-06
3.84859e-06
3.84859e-06
3.84859e-06
3.84859e-06
3.84859e-06
3.84859e-06
3.84859e-06
3.84859e-06
3.84859e-06
3.8486e-06
3.8486e-06
3.8486e-06
3.8486e-06
3.8486e-06
3.8486e-06
3.84857e-06
3.84858e-06
3.84859e-06
3.84859e-06
3.8486e-06
3.8486e-06
3.84861e-06
3.84861e-06
3.84861e-06
3.84861e-06
3.84861e-06
3.84861e-06
3.84861e-06
3.84861e-06
3.84861e-06
3.84861e-06
3.84861e-06
3.84861e-06
3.84861e-06
3.84861e-06
3.84861e-06
3.84861e-06
3.84861e-06
3.84861e-06
3.84861e-06
3.84861e-06
3.84861e-06
3.84861e-06
3.84861e-06
3.84861e-06
3.84861e-06
3.84861e-06
3.84861e-06
3.84861e-06
3.84861e-06
3.84861e-06
3.84861e-06
3.84861e-06
3.84861e-06
3.84861e-06
3.84861e-06
3.84861e-06
3.84861e-06
3.84861e-06
3.84861e-06
3.84861e-06
3.84861e-06
3.84861e-06
3.84861e-06
3.84861e-06
3.84861e-06
3.84861e-06
3.84861e-06
3.84861e-06
3.84861e-06
3.84861e-06
3.84861e-06
3.84862e-06
3.84862e-06
3.84862e-06
3.84858e-06
3.84859e-06
3.8486e-06
3.84861e-06
3.84862e-06
3.84862e-06
3.84863e-06
3.84863e-06
3.84863e-06
3.84863e-06
3.84863e-06
3.84863e-06
3.84863e-06
3.84863e-06
3.84863e-06
3.84863e-06
3.84863e-06
3.84863e-06
3.84863e-06
3.84863e-06
3.84863e-06
3.84863e-06
3.84863e-06
3.84863e-06
3.84863e-06
3.84863e-06
3.84863e-06
3.84863e-06
3.84863e-06
3.84863e-06
3.84863e-06
3.84863e-06
3.84863e-06
3.84863e-06
3.84863e-06
3.84863e-06
3.84863e-06
3.84863e-06
3.84863e-06
3.84863e-06
3.84863e-06
3.84863e-06
3.84863e-06
3.84863e-06
3.84863e-06
3.84863e-06
3.84863e-06
3.84863e-06
3.84863e-06
3.84863e-06
3.84863e-06
3.84863e-06
3.84863e-06
3.84863e-06
3.84863e-06
3.84864e-06
3.84864e-06
3.84864e-06
3.84865e-06
3.84865e-06
3.84858e-06
3.8486e-06
3.84862e-06
3.84863e-06
3.84865e-06
3.84865e-06
3.84866e-06
3.84866e-06
3.84866e-06
3.84867e-06
3.84867e-06
3.84867e-06
3.84867e-06
3.84867e-06
3.84867e-06
3.84867e-06
3.84867e-06
3.84867e-06
3.84867e-06
3.84867e-06
3.84867e-06
3.84867e-06
3.84867e-06
3.84867e-06
3.84867e-06
3.84867e-06
3.84867e-06
3.84867e-06
3.84867e-06
3.84867e-06
3.84867e-06
3.84867e-06
3.84867e-06
3.84867e-06
3.84867e-06
3.84867e-06
3.84867e-06
3.84867e-06
3.84867e-06
3.84867e-06
3.84867e-06
3.84867e-06
3.84867e-06
3.84867e-06
3.84867e-06
3.84867e-06
3.84867e-06
3.84867e-06
3.84867e-06
3.84867e-06
3.84867e-06
3.84867e-06
3.84867e-06
3.84867e-06
3.84867e-06
3.84867e-06
3.84867e-06
3.84868e-06
3.84868e-06
3.84869e-06
3.84859e-06
3.84862e-06
3.84865e-06
3.84867e-06
3.84869e-06
3.8487e-06
3.8487e-06
3.84871e-06
3.84871e-06
3.84871e-06
3.84871e-06
3.84871e-06
3.84872e-06
3.84872e-06
3.84872e-06
3.84872e-06
3.84872e-06
3.84872e-06
3.84872e-06
3.84872e-06
3.84872e-06
3.84872e-06
3.84872e-06
3.84872e-06
3.84872e-06
3.84872e-06
3.84872e-06
3.84872e-06
3.84872e-06
3.84872e-06
3.84872e-06
3.84872e-06
3.84872e-06
3.84872e-06
3.84872e-06
3.84872e-06
3.84872e-06
3.84872e-06
3.84872e-06
3.84872e-06
3.84872e-06
3.84872e-06
3.84872e-06
3.84872e-06
3.84872e-06
3.84872e-06
3.84872e-06
3.84872e-06
3.84872e-06
3.84872e-06
3.84872e-06
3.84872e-06
3.84872e-06
3.84872e-06
3.84872e-06
3.84872e-06
3.84873e-06
3.84873e-06
3.84874e-06
3.84874e-06
3.84861e-06
3.84865e-06
3.84869e-06
3.84872e-06
3.84874e-06
3.84876e-06
3.84877e-06
3.84878e-06
3.84878e-06
3.84878e-06
3.84878e-06
3.84878e-06
3.84878e-06
3.84878e-06
3.84878e-06
3.84878e-06
3.84878e-06
3.84878e-06
3.84878e-06
3.84878e-06
3.84878e-06
3.84878e-06
3.84878e-06
3.84878e-06
3.84878e-06
3.84878e-06
3.84878e-06
3.84878e-06
3.84878e-06
3.84878e-06
3.84878e-06
3.84878e-06
3.84878e-06
3.84878e-06
3.84878e-06
3.84878e-06
3.84878e-06
3.84878e-06
3.84878e-06
3.84878e-06
3.84878e-06
3.84878e-06
3.84878e-06
3.84878e-06
3.84878e-06
3.84878e-06
3.84878e-06
3.84878e-06
3.84878e-06
3.84878e-06
3.84878e-06
3.84878e-06
3.84879e-06
3.84879e-06
3.84879e-06
3.84879e-06
3.8488e-06
3.8488e-06
3.84881e-06
3.84882e-06
3.84862e-06
3.84869e-06
3.84874e-06
3.84879e-06
3.84882e-06
3.84884e-06
3.84886e-06
3.84887e-06
3.84887e-06
3.84887e-06
3.84888e-06
3.84888e-06
3.84888e-06
3.84888e-06
3.84888e-06
3.84888e-06
3.84888e-06
3.84888e-06
3.84888e-06
3.84888e-06
3.84888e-06
3.84888e-06
3.84888e-06
3.84888e-06
3.84888e-06
3.84888e-06
3.84888e-06
3.84888e-06
3.84888e-06
3.84888e-06
3.84888e-06
3.84888e-06
3.84888e-06
3.84888e-06
3.84888e-06
3.84888e-06
3.84888e-06
3.84888e-06
3.84888e-06
3.84888e-06
3.84888e-06
3.84888e-06
3.84888e-06
3.84888e-06
3.84888e-06
3.84888e-06
3.84888e-06
3.84888e-06
3.84888e-06
3.84888e-06
3.84888e-06
3.84888e-06
3.84888e-06
3.84888e-06
3.84888e-06
3.84889e-06
3.84889e-06
3.8489e-06
3.84892e-06
3.84892e-06
3.84865e-06
3.84874e-06
3.84882e-06
3.84888e-06
3.84893e-06
3.84896e-06
3.84898e-06
3.84899e-06
3.849e-06
3.849e-06
3.849e-06
3.849e-06
3.849e-06
3.849e-06
3.849e-06
3.849e-06
3.849e-06
3.849e-06
3.849e-06
3.849e-06
3.849e-06
3.849e-06
3.849e-06
3.849e-06
3.849e-06
3.849e-06
3.849e-06
3.849e-06
3.849e-06
3.849e-06
3.849e-06
3.849e-06
3.849e-06
3.849e-06
3.849e-06
3.849e-06
3.849e-06
3.849e-06
3.849e-06
3.849e-06
3.849e-06
3.849e-06
3.849e-06
3.849e-06
3.849e-06
3.849e-06
3.849e-06
3.849e-06
3.849e-06
3.849e-06
3.849e-06
3.849e-06
3.84901e-06
3.84901e-06
3.84901e-06
3.84902e-06
3.84902e-06
3.84903e-06
3.84905e-06
3.84905e-06
3.84869e-06
3.84882e-06
3.84893e-06
3.84901e-06
3.84907e-06
3.84911e-06
3.84914e-06
3.84915e-06
3.84916e-06
3.84916e-06
3.84917e-06
3.84917e-06
3.84917e-06
3.84917e-06
3.84917e-06
3.84917e-06
3.84917e-06
3.84917e-06
3.84917e-06
3.84917e-06
3.84917e-06
3.84917e-06
3.84917e-06
3.84917e-06
3.84917e-06
3.84917e-06
3.84917e-06
3.84917e-06
3.84917e-06
3.84917e-06
3.84917e-06
3.84917e-06
3.84917e-06
3.84917e-06
3.84917e-06
3.84917e-06
3.84917e-06
3.84917e-06
3.84917e-06
3.84917e-06
3.84917e-06
3.84917e-06
3.84917e-06
3.84917e-06
3.84917e-06
3.84917e-06
3.84917e-06
3.84917e-06
3.84917e-06
3.84917e-06
3.84917e-06
3.84917e-06
3.84917e-06
3.84917e-06
3.84918e-06
3.84918e-06
3.84919e-06
3.84921e-06
3.84922e-06
3.84923e-06
3.84875e-06
3.84892e-06
3.84907e-06
3.84918e-06
3.84926e-06
3.84931e-06
3.84934e-06
3.84936e-06
3.84937e-06
3.84938e-06
3.84938e-06
3.84938e-06
3.84938e-06
3.84938e-06
3.84938e-06
3.84938e-06
3.84938e-06
3.84938e-06
3.84938e-06
3.84938e-06
3.84938e-06
3.84938e-06
3.84938e-06
3.84938e-06
3.84938e-06
3.84938e-06
3.84938e-06
3.84938e-06
3.84938e-06
3.84938e-06
3.84938e-06
3.84938e-06
3.84938e-06
3.84938e-06
3.84938e-06
3.84938e-06
3.84938e-06
3.84938e-06
3.84938e-06
3.84938e-06
3.84938e-06
3.84938e-06
3.84938e-06
3.84938e-06
3.84938e-06
3.84938e-06
3.84938e-06
3.84938e-06
3.84938e-06
3.84938e-06
3.84938e-06
3.84938e-06
3.84939e-06
3.84939e-06
3.84939e-06
3.8494e-06
3.84941e-06
3.84942e-06
3.84945e-06
3.84945e-06
3.84882e-06
3.84906e-06
3.84926e-06
3.8494e-06
3.8495e-06
3.84957e-06
3.84961e-06
3.84963e-06
3.84964e-06
3.84965e-06
3.84965e-06
3.84965e-06
3.84965e-06
3.84965e-06
3.84965e-06
3.84965e-06
3.84965e-06
3.84965e-06
3.84965e-06
3.84965e-06
3.84965e-06
3.84965e-06
3.84965e-06
3.84965e-06
3.84965e-06
3.84965e-06
3.84965e-06
3.84965e-06
3.84965e-06
3.84965e-06
3.84965e-06
3.84965e-06
3.84965e-06
3.84965e-06
3.84965e-06
3.84965e-06
3.84965e-06
3.84965e-06
3.84965e-06
3.84965e-06
3.84965e-06
3.84965e-06
3.84965e-06
3.84965e-06
3.84965e-06
3.84965e-06
3.84965e-06
3.84965e-06
3.84965e-06
3.84965e-06
3.84966e-06
3.84966e-06
3.84966e-06
3.84966e-06
3.84967e-06
3.84968e-06
3.84969e-06
3.8497e-06
3.84972e-06
3.84972e-06
3.84892e-06
3.84924e-06
3.8495e-06
3.84969e-06
3.84981e-06
3.84989e-06
3.84994e-06
3.84997e-06
3.84998e-06
3.84999e-06
3.84999e-06
3.84999e-06
3.84999e-06
3.84999e-06
3.84999e-06
3.84999e-06
3.84999e-06
3.85e-06
3.85e-06
3.85e-06
3.85e-06
3.85e-06
3.85e-06
3.85e-06
3.85e-06
3.85e-06
3.85e-06
3.85e-06
3.85e-06
3.85e-06
3.85e-06
3.85e-06
3.85e-06
3.85e-06
3.85e-06
3.85e-06
3.85e-06
3.85e-06
3.85e-06
3.85e-06
3.85e-06
3.85e-06
3.85e-06
3.85e-06
3.85e-06
3.85e-06
3.85e-06
3.85e-06
3.85e-06
3.85e-06
3.85e-06
3.85e-06
3.85e-06
3.85e-06
3.85001e-06
3.85002e-06
3.85003e-06
3.85005e-06
3.85007e-06
3.85007e-06
3.84905e-06
3.84948e-06
3.84982e-06
3.85005e-06
3.85021e-06
3.8503e-06
3.85036e-06
3.85039e-06
3.8504e-06
3.85041e-06
3.85041e-06
3.85042e-06
3.85042e-06
3.85042e-06
3.85042e-06
3.85042e-06
3.85042e-06
3.85042e-06
3.85042e-06
3.85042e-06
3.85042e-06
3.85042e-06
3.85042e-06
3.85042e-06
3.85042e-06
3.85042e-06
3.85042e-06
3.85042e-06
3.85042e-06
3.85042e-06
3.85042e-06
3.85042e-06
3.85042e-06
3.85042e-06
3.85042e-06
3.85042e-06
3.85042e-06
3.85042e-06
3.85042e-06
3.85042e-06
3.85042e-06
3.85042e-06
3.85042e-06
3.85042e-06
3.85042e-06
3.85042e-06
3.85042e-06
3.85042e-06
3.85042e-06
3.85042e-06
3.85042e-06
3.85042e-06
3.85042e-06
3.85043e-06
3.85043e-06
3.85044e-06
3.85046e-06
3.85047e-06
3.8505e-06
3.85049e-06
3.84923e-06
3.8498e-06
3.85023e-06
3.85052e-06
3.8507e-06
3.85081e-06
3.85087e-06
3.8509e-06
3.85092e-06
3.85093e-06
3.85093e-06
3.85093e-06
3.85094e-06
3.85094e-06
3.85094e-06
3.85094e-06
3.85094e-06
3.85094e-06
3.85094e-06
3.85094e-06
3.85094e-06
3.85094e-06
3.85094e-06
3.85094e-06
3.85094e-06
3.85094e-06
3.85094e-06
3.85094e-06
3.85094e-06
3.85094e-06
3.85094e-06
3.85094e-06
3.85094e-06
3.85094e-06
3.85094e-06
3.85094e-06
3.85094e-06
3.85094e-06
3.85094e-06
3.85094e-06
3.85094e-06
3.85094e-06
3.85094e-06
3.85094e-06
3.85094e-06
3.85094e-06
3.85094e-06
3.85094e-06
3.85094e-06
3.85094e-06
3.85094e-06
3.85094e-06
3.85094e-06
3.85095e-06
3.85095e-06
3.85096e-06
3.85098e-06
3.85099e-06
3.85102e-06
3.85101e-06
3.84947e-06
3.85021e-06
3.85075e-06
3.8511e-06
3.85132e-06
3.85144e-06
3.8515e-06
3.85153e-06
3.85155e-06
3.85156e-06
3.85156e-06
3.85156e-06
3.85157e-06
3.85157e-06
3.85157e-06
3.85157e-06
3.85157e-06
3.85157e-06
3.85157e-06
3.85157e-06
3.85157e-06
3.85157e-06
3.85157e-06
3.85157e-06
3.85157e-06
3.85157e-06
3.85157e-06
3.85157e-06
3.85157e-06
3.85157e-06
3.85157e-06
3.85157e-06
3.85157e-06
3.85157e-06
3.85157e-06
3.85157e-06
3.85157e-06
3.85157e-06
3.85157e-06
3.85157e-06
3.85157e-06
3.85157e-06
3.85157e-06
3.85157e-06
3.85157e-06
3.85157e-06
3.85157e-06
3.85157e-06
3.85157e-06
3.85157e-06
3.85157e-06
3.85157e-06
3.85157e-06
3.85158e-06
3.85158e-06
3.85159e-06
3.8516e-06
3.85162e-06
3.85164e-06
3.85163e-06
3.84979e-06
3.85074e-06
3.85141e-06
3.85183e-06
3.85207e-06
3.8522e-06
3.85227e-06
3.8523e-06
3.85231e-06
3.85232e-06
3.85232e-06
3.85232e-06
3.85233e-06
3.85233e-06
3.85233e-06
3.85233e-06
3.85233e-06
3.85233e-06
3.85233e-06
3.85233e-06
3.85233e-06
3.85233e-06
3.85233e-06
3.85233e-06
3.85233e-06
3.85233e-06
3.85233e-06
3.85233e-06
3.85233e-06
3.85233e-06
3.85233e-06
3.85233e-06
3.85233e-06
3.85233e-06
3.85233e-06
3.85233e-06
3.85233e-06
3.85233e-06
3.85233e-06
3.85233e-06
3.85233e-06
3.85233e-06
3.85233e-06
3.85233e-06
3.85233e-06
3.85233e-06
3.85233e-06
3.85233e-06
3.85233e-06
3.85233e-06
3.85233e-06
3.85233e-06
3.85233e-06
3.85234e-06
3.85234e-06
3.85235e-06
3.85236e-06
3.85238e-06
3.8524e-06
3.85238e-06
3.8502e-06
3.85143e-06
3.85226e-06
3.85274e-06
3.85301e-06
3.85313e-06
3.85319e-06
3.85322e-06
3.85323e-06
3.85324e-06
3.85324e-06
3.85324e-06
3.85324e-06
3.85324e-06
3.85324e-06
3.85324e-06
3.85324e-06
3.85324e-06
3.85324e-06
3.85324e-06
3.85324e-06
3.85324e-06
3.85324e-06
3.85324e-06
3.85324e-06
3.85324e-06
3.85324e-06
3.85324e-06
3.85324e-06
3.85324e-06
3.85324e-06
3.85324e-06
3.85324e-06
3.85324e-06
3.85324e-06
3.85324e-06
3.85324e-06
3.85324e-06
3.85324e-06
3.85324e-06
3.85324e-06
3.85324e-06
3.85324e-06
3.85324e-06
3.85324e-06
3.85324e-06
3.85324e-06
3.85324e-06
3.85324e-06
3.85324e-06
3.85324e-06
3.85324e-06
3.85324e-06
3.85325e-06
3.85325e-06
3.85326e-06
3.85327e-06
3.85328e-06
3.8533e-06
3.85328e-06
3.85077e-06
3.85234e-06
3.85333e-06
3.85387e-06
3.85414e-06
3.85426e-06
3.85431e-06
3.85433e-06
3.85433e-06
3.85433e-06
3.85433e-06
3.85433e-06
3.85433e-06
3.85433e-06
3.85433e-06
3.85433e-06
3.85433e-06
3.85433e-06
3.85433e-06
3.85433e-06
3.85433e-06
3.85433e-06
3.85433e-06
3.85433e-06
3.85433e-06
3.85433e-06
3.85433e-06
3.85433e-06
3.85433e-06
3.85433e-06
3.85433e-06
3.85433e-06
3.85433e-06
3.85433e-06
3.85433e-06
3.85433e-06
3.85433e-06
3.85433e-06
3.85433e-06
3.85433e-06
3.85433e-06
3.85433e-06
3.85433e-06
3.85433e-06
3.85433e-06
3.85433e-06
3.85433e-06
3.85433e-06
3.85433e-06
3.85433e-06
3.85433e-06
3.85433e-06
3.85434e-06
3.85434e-06
3.85434e-06
3.85435e-06
3.85436e-06
3.85437e-06
3.85438e-06
3.85435e-06
3.85153e-06
3.85353e-06
3.8547e-06
3.85527e-06
3.85552e-06
3.85562e-06
3.85564e-06
3.85565e-06
3.85564e-06
3.85564e-06
3.85564e-06
3.85563e-06
3.85563e-06
3.85563e-06
3.85563e-06
3.85563e-06
3.85563e-06
3.85563e-06
3.85563e-06
3.85563e-06
3.85563e-06
3.85563e-06
3.85563e-06
3.85563e-06
3.85563e-06
3.85563e-06
3.85563e-06
3.85563e-06
3.85563e-06
3.85563e-06
3.85563e-06
3.85563e-06
3.85563e-06
3.85563e-06
3.85563e-06
3.85563e-06
3.85563e-06
3.85563e-06
3.85563e-06
3.85563e-06
3.85563e-06
3.85563e-06
3.85563e-06
3.85563e-06
3.85563e-06
3.85563e-06
3.85563e-06
3.85563e-06
3.85563e-06
3.85563e-06
3.85563e-06
3.85564e-06
3.85564e-06
3.85564e-06
3.85564e-06
3.85565e-06
3.85565e-06
3.85566e-06
3.85567e-06
3.85564e-06
3.85259e-06
3.85512e-06
3.85644e-06
3.857e-06
3.8572e-06
3.85724e-06
3.85724e-06
3.85722e-06
3.85721e-06
3.8572e-06
3.85719e-06
3.85719e-06
3.85719e-06
3.85719e-06
3.85719e-06
3.85719e-06
3.85719e-06
3.85719e-06
3.85719e-06
3.85719e-06
3.85719e-06
3.85719e-06
3.85719e-06
3.85719e-06
3.85719e-06
3.85719e-06
3.85719e-06
3.85719e-06
3.85719e-06
3.85719e-06
3.85719e-06
3.85719e-06
3.85719e-06
3.85719e-06
3.85719e-06
3.85719e-06
3.85719e-06
3.85719e-06
3.85719e-06
3.85719e-06
3.85719e-06
3.85719e-06
3.85719e-06
3.85719e-06
3.85719e-06
3.85719e-06
3.85719e-06
3.85719e-06
3.85719e-06
3.85719e-06
3.85719e-06
3.85719e-06
3.85719e-06
3.85719e-06
3.8572e-06
3.8572e-06
3.8572e-06
3.8572e-06
3.85721e-06
3.85717e-06
3.85408e-06
3.85723e-06
3.85865e-06
3.85913e-06
3.85922e-06
3.85919e-06
3.85914e-06
3.8591e-06
3.85908e-06
3.85906e-06
3.85905e-06
3.85905e-06
3.85904e-06
3.85904e-06
3.85904e-06
3.85904e-06
3.85904e-06
3.85904e-06
3.85904e-06
3.85904e-06
3.85904e-06
3.85904e-06
3.85904e-06
3.85904e-06
3.85904e-06
3.85904e-06
3.85904e-06
3.85904e-06
3.85904e-06
3.85904e-06
3.85904e-06
3.85904e-06
3.85904e-06
3.85904e-06
3.85904e-06
3.85904e-06
3.85904e-06
3.85904e-06
3.85904e-06
3.85904e-06
3.85904e-06
3.85904e-06
3.85904e-06
3.85904e-06
3.85904e-06
3.85904e-06
3.85904e-06
3.85904e-06
3.85904e-06
3.85904e-06
3.85904e-06
3.85904e-06
3.85905e-06
3.85905e-06
3.85905e-06
3.85905e-06
3.85905e-06
3.85905e-06
3.85905e-06
3.85901e-06
3.85625e-06
3.86009e-06
3.86145e-06
3.86172e-06
3.86165e-06
3.86152e-06
3.86142e-06
3.86135e-06
3.86131e-06
3.86128e-06
3.86127e-06
3.86127e-06
3.86126e-06
3.86126e-06
3.86126e-06
3.86126e-06
3.86126e-06
3.86126e-06
3.86126e-06
3.86126e-06
3.86126e-06
3.86126e-06
3.86126e-06
3.86126e-06
3.86126e-06
3.86126e-06
3.86126e-06
3.86126e-06
3.86126e-06
3.86126e-06
3.86126e-06
3.86126e-06
3.86126e-06
3.86126e-06
3.86126e-06
3.86126e-06
3.86126e-06
3.86126e-06
3.86126e-06
3.86126e-06
3.86126e-06
3.86126e-06
3.86126e-06
3.86126e-06
3.86126e-06
3.86126e-06
3.86126e-06
3.86126e-06
3.86126e-06
3.86126e-06
3.86126e-06
3.86126e-06
3.86126e-06
3.86126e-06
3.86126e-06
3.86126e-06
3.86126e-06
3.86125e-06
3.86125e-06
3.86121e-06
3.85956e-06
3.86396e-06
3.86498e-06
3.86487e-06
3.86456e-06
3.8643e-06
3.86413e-06
3.86403e-06
3.86398e-06
3.86394e-06
3.86393e-06
3.86392e-06
3.86392e-06
3.86391e-06
3.86391e-06
3.86391e-06
3.86391e-06
3.86391e-06
3.86391e-06
3.86391e-06
3.86391e-06
3.86391e-06
3.86391e-06
3.86391e-06
3.86391e-06
3.86391e-06
3.86391e-06
3.86391e-06
3.86391e-06
3.86391e-06
3.86391e-06
3.86391e-06
3.86391e-06
3.86391e-06
3.86391e-06
3.86391e-06
3.86391e-06
3.86391e-06
3.86391e-06
3.86391e-06
3.86391e-06
3.86391e-06
3.86391e-06
3.86391e-06
3.86391e-06
3.86391e-06
3.86391e-06
3.86391e-06
3.86391e-06
3.86391e-06
3.86391e-06
3.86391e-06
3.86391e-06
3.86391e-06
3.86391e-06
3.8639e-06
3.8639e-06
3.86389e-06
3.86389e-06
3.86384e-06
3.86483e-06
3.86922e-06
3.86938e-06
3.86866e-06
3.86802e-06
3.86761e-06
3.86737e-06
3.86724e-06
3.86717e-06
3.86713e-06
3.86711e-06
3.8671e-06
3.8671e-06
3.8671e-06
3.86709e-06
3.86709e-06
3.86709e-06
3.86709e-06
3.86709e-06
3.86709e-06
3.86709e-06
3.86709e-06
3.86709e-06
3.86709e-06
3.86709e-06
3.86709e-06
3.86709e-06
3.86709e-06
3.86709e-06
3.86709e-06
3.86709e-06
3.86709e-06
3.86709e-06
3.86709e-06
3.86709e-06
3.86709e-06
3.86709e-06
3.86709e-06
3.86709e-06
3.86709e-06
3.86709e-06
3.86709e-06
3.86709e-06
3.86709e-06
3.86709e-06
3.86709e-06
3.86709e-06
3.86709e-06
3.86709e-06
3.86709e-06
3.86709e-06
3.86709e-06
3.86709e-06
3.86709e-06
3.86709e-06
3.86708e-06
3.86707e-06
3.86706e-06
3.86705e-06
3.86701e-06
3.87368e-06
3.87631e-06
3.87476e-06
3.87314e-06
3.87212e-06
3.87156e-06
3.87125e-06
3.87109e-06
3.871e-06
3.87096e-06
3.87094e-06
3.87093e-06
3.87092e-06
3.87092e-06
3.87092e-06
3.87092e-06
3.87092e-06
3.87092e-06
3.87092e-06
3.87092e-06
3.87092e-06
3.87092e-06
3.87092e-06
3.87092e-06
3.87092e-06
3.87092e-06
3.87092e-06
3.87092e-06
3.87092e-06
3.87092e-06
3.87092e-06
3.87092e-06
3.87092e-06
3.87092e-06
3.87092e-06
3.87092e-06
3.87092e-06
3.87092e-06
3.87092e-06
3.87092e-06
3.87092e-06
3.87092e-06
3.87092e-06
3.87092e-06
3.87092e-06
3.87092e-06
3.87092e-06
3.87092e-06
3.87092e-06
3.87092e-06
3.87092e-06
3.87092e-06
3.87091e-06
3.87091e-06
3.87091e-06
3.8709e-06
3.87089e-06
3.87088e-06
3.87086e-06
3.87082e-06
3.89133e-06
3.88866e-06
3.88468e-06
3.88215e-06
3.88083e-06
3.88016e-06
3.87982e-06
3.87965e-06
3.87956e-06
3.87952e-06
3.8795e-06
3.87948e-06
3.87948e-06
3.87948e-06
3.87947e-06
3.87947e-06
3.87947e-06
3.87947e-06
3.87947e-06
3.87947e-06
3.87947e-06
3.87947e-06
3.87947e-06
3.87947e-06
3.87947e-06
3.87947e-06
3.87947e-06
3.87947e-06
3.87947e-06
3.87947e-06
3.87947e-06
3.87947e-06
3.87947e-06
3.87947e-06
3.87947e-06
3.87947e-06
3.87947e-06
3.87947e-06
3.87947e-06
3.87947e-06
3.87947e-06
3.87947e-06
3.87947e-06
3.87947e-06
3.87947e-06
3.87947e-06
3.87947e-06
3.87947e-06
3.87947e-06
3.87947e-06
3.87947e-06
3.87947e-06
3.87947e-06
3.87947e-06
3.87946e-06
3.87945e-06
3.87944e-06
3.87943e-06
3.87941e-06
3.87937e-06
6.6489e-06
6.67554e-06
6.67918e-06
6.68012e-06
6.68072e-06
6.68118e-06
6.68153e-06
6.68179e-06
6.68197e-06
6.68211e-06
6.68221e-06
6.68228e-06
6.68233e-06
6.68236e-06
6.68239e-06
6.68241e-06
6.68242e-06
6.68243e-06
6.68243e-06
6.68244e-06
6.68244e-06
6.68244e-06
6.68245e-06
6.68245e-06
6.68245e-06
6.68245e-06
6.68245e-06
6.68245e-06
6.68245e-06
6.68245e-06
6.68245e-06
6.68245e-06
6.68245e-06
6.68245e-06
6.68245e-06
6.68245e-06
6.68245e-06
6.68245e-06
6.68245e-06
6.68245e-06
6.68245e-06
6.68245e-06
6.68245e-06
6.68245e-06
6.68245e-06
6.68245e-06
6.68245e-06
6.68245e-06
6.68245e-06
6.68245e-06
6.68245e-06
6.68245e-06
6.68244e-06
6.68244e-06
6.68243e-06
6.68241e-06
6.6824e-06
6.68237e-06
6.68234e-06
6.6823e-06
1.25721e-06
1.13857e-06
1.11242e-06
1.10317e-06
1.09908e-06
1.09703e-06
1.09592e-06
1.09529e-06
1.09491e-06
1.09468e-06
1.09453e-06
1.09444e-06
1.09438e-06
1.09434e-06
1.09431e-06
1.09429e-06
1.09428e-06
1.09427e-06
1.09426e-06
1.09426e-06
1.09425e-06
1.09425e-06
1.09425e-06
1.09425e-06
1.09425e-06
1.09425e-06
1.09425e-06
1.09425e-06
1.09425e-06
1.09425e-06
1.09425e-06
1.09425e-06
1.09425e-06
1.09425e-06
1.09425e-06
1.09425e-06
1.09425e-06
1.09425e-06
1.09425e-06
1.09425e-06
1.09425e-06
1.09425e-06
1.09425e-06
1.09425e-06
1.09425e-06
1.09425e-06
1.09425e-06
1.09425e-06
1.09425e-06
1.09425e-06
1.09424e-06
1.09424e-06
1.09424e-06
1.09424e-06
1.09424e-06
1.09423e-06
1.09422e-06
1.09421e-06
1.0942e-06
1.10542e-06
)
;

boundaryField
{
    top
    {
        type            calculated;
        value           nonuniform List<scalar> 
60
(
1.18928e-06
1.11463e-06
1.09756e-06
1.09163e-06
1.08915e-06
1.08799e-06
1.08742e-06
1.08714e-06
1.08699e-06
1.08691e-06
1.08688e-06
1.08686e-06
1.08685e-06
1.08685e-06
1.08685e-06
1.08686e-06
1.08686e-06
1.08686e-06
1.08686e-06
1.08687e-06
1.08687e-06
1.08687e-06
1.08687e-06
1.08687e-06
1.08687e-06
1.08687e-06
1.08687e-06
1.08687e-06
1.08687e-06
1.08687e-06
1.08687e-06
1.08687e-06
1.08687e-06
1.08687e-06
1.08687e-06
1.08687e-06
1.08687e-06
1.08687e-06
1.08687e-06
1.08687e-06
1.08687e-06
1.08687e-06
1.08687e-06
1.08687e-06
1.08687e-06
1.08687e-06
1.08687e-06
1.08687e-06
1.08687e-06
1.08687e-06
1.08687e-06
1.08687e-06
1.08687e-06
1.08687e-06
1.08687e-06
1.08686e-06
1.08686e-06
1.08685e-06
1.08685e-06
1.098e-06
)
;
    }
    inlet
    {
        type            calculated;
        value           uniform 3.84857e-06;
    }
    outlet
    {
        type            calculated;
        value           nonuniform List<scalar> 
30
(
3.84859e-06
3.84859e-06
3.8486e-06
3.84862e-06
3.84865e-06
3.84869e-06
3.84874e-06
3.84882e-06
3.84892e-06
3.84905e-06
3.84923e-06
3.84945e-06
3.84972e-06
3.85007e-06
3.85049e-06
3.85101e-06
3.85163e-06
3.85238e-06
3.85328e-06
3.85435e-06
3.85564e-06
3.85717e-06
3.85901e-06
3.86121e-06
3.86384e-06
3.86701e-06
3.87082e-06
3.87937e-06
6.6823e-06
1.10542e-06
)
;
    }
    bottom
    {
        type            symmetryPlane;
    }
    frontAndBack
    {
        type            empty;
    }
}


// ************************************************************************* //
