/*--------------------------------*- C++ -*----------------------------------*\
| =========                 |                                                 |
| \\      /  F ield         | OpenFOAM: The Open Source CFD Toolbox           |
|  \\    /   O peration     | Version:  2412                                  |
|   \\  /    A nd           | Website:  www.openfoam.com                      |
|    \\/     M anipulation  |                                                 |
\*---------------------------------------------------------------------------*/
FoamFile
{
    version     2.0;
    format      ascii;
    arch        "LSB;label=32;scalar=64";
    class       volScalarField;
    location    "0.005";
    object      rho;
}
// * * * * * * * * * * * * * * * * * * * * * * * * * * * * * * * * * * * * * //

dimensions      [1 -3 0 0 0 0 0];

internalField   nonuniform List<scalar> 
1800
(
1.92433e-06
1.92436e-06
1.9244e-06
1.92443e-06
1.92445e-06
1.92447e-06
1.92449e-06
1.9245e-06
1.92451e-06
1.92451e-06
1.92452e-06
1.92452e-06
1.92452e-06
1.92452e-06
1.92452e-06
1.92452e-06
1.92452e-06
1.92452e-06
1.92452e-06
1.92452e-06
1.92452e-06
1.92452e-06
1.92452e-06
1.92452e-06
1.92452e-06
1.92452e-06
1.92452e-06
1.92452e-06
1.92452e-06
1.92452e-06
1.92452e-06
1.92452e-06
1.92452e-06
1.92452e-06
1.92452e-06
1.92452e-06
1.92452e-06
1.92452e-06
1.92452e-06
1.92452e-06
1.92452e-06
1.92452e-06
1.92452e-06
1.92452e-06
1.92452e-06
1.92452e-06
1.92452e-06
1.92452e-06
1.92452e-06
1.92452e-06
1.92453e-06
1.92453e-06
1.92453e-06
1.92453e-06
1.92453e-06
1.92454e-06
1.92454e-06
1.92455e-06
1.92455e-06
1.92455e-06
1.92433e-06
1.92437e-06
1.92441e-06
1.92444e-06
1.92447e-06
1.92449e-06
1.92451e-06
1.92452e-06
1.92453e-06
1.92453e-06
1.92454e-06
1.92454e-06
1.92454e-06
1.92454e-06
1.92454e-06
1.92454e-06
1.92454e-06
1.92454e-06
1.92454e-06
1.92454e-06
1.92454e-06
1.92454e-06
1.92454e-06
1.92454e-06
1.92454e-06
1.92454e-06
1.92454e-06
1.92454e-06
1.92454e-06
1.92454e-06
1.92454e-06
1.92454e-06
1.92454e-06
1.92454e-06
1.92454e-06
1.92454e-06
1.92454e-06
1.92454e-06
1.92454e-06
1.92454e-06
1.92454e-06
1.92454e-06
1.92454e-06
1.92454e-06
1.92454e-06
1.92454e-06
1.92455e-06
1.92455e-06
1.92455e-06
1.92455e-06
1.92455e-06
1.92455e-06
1.92455e-06
1.92455e-06
1.92455e-06
1.92456e-06
1.92456e-06
1.92457e-06
1.92457e-06
1.92458e-06
1.92434e-06
1.92438e-06
1.92442e-06
1.92446e-06
1.92449e-06
1.92451e-06
1.92453e-06
1.92455e-06
1.92456e-06
1.92456e-06
1.92457e-06
1.92457e-06
1.92457e-06
1.92458e-06
1.92458e-06
1.92458e-06
1.92458e-06
1.92458e-06
1.92458e-06
1.92458e-06
1.92458e-06
1.92458e-06
1.92458e-06
1.92458e-06
1.92458e-06
1.92458e-06
1.92458e-06
1.92458e-06
1.92458e-06
1.92458e-06
1.92458e-06
1.92458e-06
1.92458e-06
1.92458e-06
1.92458e-06
1.92458e-06
1.92458e-06
1.92458e-06
1.92458e-06
1.92458e-06
1.92458e-06
1.92458e-06
1.92458e-06
1.92458e-06
1.92458e-06
1.92458e-06
1.92458e-06
1.92458e-06
1.92458e-06
1.92458e-06
1.92458e-06
1.92458e-06
1.92458e-06
1.92458e-06
1.92459e-06
1.92459e-06
1.92459e-06
1.9246e-06
1.92461e-06
1.92461e-06
1.92435e-06
1.9244e-06
1.92445e-06
1.92449e-06
1.92452e-06
1.92455e-06
1.92457e-06
1.92459e-06
1.9246e-06
1.92461e-06
1.92461e-06
1.92462e-06
1.92462e-06
1.92462e-06
1.92462e-06
1.92462e-06
1.92462e-06
1.92462e-06
1.92462e-06
1.92462e-06
1.92462e-06
1.92462e-06
1.92462e-06
1.92462e-06
1.92462e-06
1.92462e-06
1.92462e-06
1.92462e-06
1.92462e-06
1.92462e-06
1.92462e-06
1.92462e-06
1.92462e-06
1.92462e-06
1.92462e-06
1.92462e-06
1.92462e-06
1.92462e-06
1.92462e-06
1.92462e-06
1.92462e-06
1.92462e-06
1.92462e-06
1.92462e-06
1.92462e-06
1.92462e-06
1.92462e-06
1.92462e-06
1.92462e-06
1.92462e-06
1.92462e-06
1.92463e-06
1.92463e-06
1.92463e-06
1.92463e-06
1.92464e-06
1.92464e-06
1.92465e-06
1.92465e-06
1.92465e-06
1.92436e-06
1.92442e-06
1.92448e-06
1.92453e-06
1.92457e-06
1.9246e-06
1.92463e-06
1.92465e-06
1.92466e-06
1.92467e-06
1.92467e-06
1.92468e-06
1.92468e-06
1.92468e-06
1.92468e-06
1.92468e-06
1.92468e-06
1.92468e-06
1.92468e-06
1.92468e-06
1.92468e-06
1.92468e-06
1.92468e-06
1.92468e-06
1.92468e-06
1.92468e-06
1.92468e-06
1.92468e-06
1.92468e-06
1.92468e-06
1.92468e-06
1.92468e-06
1.92468e-06
1.92468e-06
1.92468e-06
1.92468e-06
1.92468e-06
1.92468e-06
1.92468e-06
1.92468e-06
1.92468e-06
1.92468e-06
1.92468e-06
1.92468e-06
1.92468e-06
1.92468e-06
1.92468e-06
1.92468e-06
1.92468e-06
1.92468e-06
1.92468e-06
1.92469e-06
1.92469e-06
1.92469e-06
1.92469e-06
1.9247e-06
1.9247e-06
1.92471e-06
1.92472e-06
1.92471e-06
1.92438e-06
1.92445e-06
1.92452e-06
1.92458e-06
1.92463e-06
1.92467e-06
1.9247e-06
1.92472e-06
1.92473e-06
1.92474e-06
1.92475e-06
1.92475e-06
1.92475e-06
1.92475e-06
1.92476e-06
1.92476e-06
1.92476e-06
1.92476e-06
1.92476e-06
1.92476e-06
1.92476e-06
1.92476e-06
1.92476e-06
1.92476e-06
1.92476e-06
1.92476e-06
1.92476e-06
1.92476e-06
1.92476e-06
1.92476e-06
1.92476e-06
1.92476e-06
1.92476e-06
1.92476e-06
1.92476e-06
1.92476e-06
1.92476e-06
1.92476e-06
1.92476e-06
1.92476e-06
1.92476e-06
1.92476e-06
1.92476e-06
1.92476e-06
1.92476e-06
1.92476e-06
1.92476e-06
1.92476e-06
1.92476e-06
1.92476e-06
1.92476e-06
1.92476e-06
1.92476e-06
1.92476e-06
1.92477e-06
1.92477e-06
1.92478e-06
1.92478e-06
1.92479e-06
1.92479e-06
1.9244e-06
1.92449e-06
1.92458e-06
1.92465e-06
1.9247e-06
1.92475e-06
1.92478e-06
1.9248e-06
1.92482e-06
1.92483e-06
1.92484e-06
1.92484e-06
1.92484e-06
1.92484e-06
1.92485e-06
1.92485e-06
1.92485e-06
1.92485e-06
1.92485e-06
1.92485e-06
1.92485e-06
1.92485e-06
1.92485e-06
1.92485e-06
1.92485e-06
1.92485e-06
1.92485e-06
1.92485e-06
1.92485e-06
1.92485e-06
1.92485e-06
1.92485e-06
1.92485e-06
1.92485e-06
1.92485e-06
1.92485e-06
1.92485e-06
1.92485e-06
1.92485e-06
1.92485e-06
1.92485e-06
1.92485e-06
1.92485e-06
1.92485e-06
1.92485e-06
1.92485e-06
1.92485e-06
1.92485e-06
1.92485e-06
1.92485e-06
1.92485e-06
1.92485e-06
1.92485e-06
1.92486e-06
1.92486e-06
1.92486e-06
1.92487e-06
1.92487e-06
1.92488e-06
1.92488e-06
1.92443e-06
1.92454e-06
1.92464e-06
1.92473e-06
1.92479e-06
1.92484e-06
1.92488e-06
1.92491e-06
1.92492e-06
1.92494e-06
1.92494e-06
1.92495e-06
1.92495e-06
1.92495e-06
1.92495e-06
1.92496e-06
1.92496e-06
1.92496e-06
1.92496e-06
1.92496e-06
1.92496e-06
1.92496e-06
1.92496e-06
1.92496e-06
1.92496e-06
1.92496e-06
1.92496e-06
1.92496e-06
1.92496e-06
1.92496e-06
1.92496e-06
1.92496e-06
1.92496e-06
1.92496e-06
1.92496e-06
1.92496e-06
1.92496e-06
1.92496e-06
1.92496e-06
1.92496e-06
1.92496e-06
1.92496e-06
1.92496e-06
1.92496e-06
1.92496e-06
1.92496e-06
1.92496e-06
1.92496e-06
1.92496e-06
1.92496e-06
1.92496e-06
1.92496e-06
1.92496e-06
1.92497e-06
1.92497e-06
1.92497e-06
1.92498e-06
1.92498e-06
1.92499e-06
1.92499e-06
1.92447e-06
1.9246e-06
1.92472e-06
1.92482e-06
1.9249e-06
1.92496e-06
1.925e-06
1.92503e-06
1.92505e-06
1.92506e-06
1.92507e-06
1.92508e-06
1.92508e-06
1.92508e-06
1.92508e-06
1.92508e-06
1.92508e-06
1.92508e-06
1.92508e-06
1.92508e-06
1.92508e-06
1.92508e-06
1.92508e-06
1.92508e-06
1.92508e-06
1.92508e-06
1.92508e-06
1.92508e-06
1.92508e-06
1.92508e-06
1.92508e-06
1.92508e-06
1.92508e-06
1.92508e-06
1.92508e-06
1.92508e-06
1.92508e-06
1.92508e-06
1.92508e-06
1.92508e-06
1.92508e-06
1.92508e-06
1.92508e-06
1.92508e-06
1.92508e-06
1.92508e-06
1.92508e-06
1.92508e-06
1.92509e-06
1.92509e-06
1.92509e-06
1.92509e-06
1.92509e-06
1.92509e-06
1.9251e-06
1.9251e-06
1.92511e-06
1.92511e-06
1.92512e-06
1.92512e-06
1.92451e-06
1.92468e-06
1.92482e-06
1.92494e-06
1.92503e-06
1.9251e-06
1.92515e-06
1.92518e-06
1.9252e-06
1.92521e-06
1.92522e-06
1.92523e-06
1.92523e-06
1.92523e-06
1.92523e-06
1.92523e-06
1.92523e-06
1.92523e-06
1.92523e-06
1.92523e-06
1.92523e-06
1.92523e-06
1.92523e-06
1.92523e-06
1.92523e-06
1.92523e-06
1.92523e-06
1.92523e-06
1.92523e-06
1.92523e-06
1.92523e-06
1.92523e-06
1.92523e-06
1.92523e-06
1.92523e-06
1.92523e-06
1.92523e-06
1.92523e-06
1.92523e-06
1.92523e-06
1.92523e-06
1.92523e-06
1.92523e-06
1.92523e-06
1.92523e-06
1.92523e-06
1.92523e-06
1.92523e-06
1.92523e-06
1.92523e-06
1.92524e-06
1.92524e-06
1.92524e-06
1.92524e-06
1.92525e-06
1.92525e-06
1.92525e-06
1.92526e-06
1.92527e-06
1.92527e-06
1.92456e-06
1.92477e-06
1.92494e-06
1.92508e-06
1.92518e-06
1.92526e-06
1.92531e-06
1.92535e-06
1.92537e-06
1.92538e-06
1.92539e-06
1.9254e-06
1.9254e-06
1.9254e-06
1.9254e-06
1.9254e-06
1.9254e-06
1.9254e-06
1.9254e-06
1.9254e-06
1.9254e-06
1.9254e-06
1.9254e-06
1.9254e-06
1.9254e-06
1.9254e-06
1.9254e-06
1.9254e-06
1.9254e-06
1.9254e-06
1.9254e-06
1.9254e-06
1.9254e-06
1.9254e-06
1.9254e-06
1.9254e-06
1.9254e-06
1.9254e-06
1.9254e-06
1.9254e-06
1.9254e-06
1.9254e-06
1.9254e-06
1.9254e-06
1.9254e-06
1.9254e-06
1.9254e-06
1.9254e-06
1.9254e-06
1.92541e-06
1.92541e-06
1.92541e-06
1.92541e-06
1.92541e-06
1.92542e-06
1.92542e-06
1.92543e-06
1.92543e-06
1.92544e-06
1.92544e-06
1.92463e-06
1.92488e-06
1.92508e-06
1.92524e-06
1.92536e-06
1.92545e-06
1.9255e-06
1.92554e-06
1.92556e-06
1.92558e-06
1.92559e-06
1.92559e-06
1.9256e-06
1.9256e-06
1.9256e-06
1.9256e-06
1.9256e-06
1.9256e-06
1.9256e-06
1.9256e-06
1.9256e-06
1.9256e-06
1.9256e-06
1.9256e-06
1.9256e-06
1.9256e-06
1.9256e-06
1.9256e-06
1.9256e-06
1.9256e-06
1.9256e-06
1.9256e-06
1.9256e-06
1.9256e-06
1.9256e-06
1.9256e-06
1.9256e-06
1.9256e-06
1.9256e-06
1.9256e-06
1.9256e-06
1.9256e-06
1.9256e-06
1.9256e-06
1.9256e-06
1.9256e-06
1.9256e-06
1.9256e-06
1.9256e-06
1.9256e-06
1.9256e-06
1.9256e-06
1.92561e-06
1.92561e-06
1.92561e-06
1.92562e-06
1.92562e-06
1.92563e-06
1.92564e-06
1.92563e-06
1.92471e-06
1.92501e-06
1.92525e-06
1.92544e-06
1.92557e-06
1.92567e-06
1.92573e-06
1.92576e-06
1.92579e-06
1.9258e-06
1.92581e-06
1.92581e-06
1.92582e-06
1.92582e-06
1.92582e-06
1.92582e-06
1.92582e-06
1.92582e-06
1.92582e-06
1.92582e-06
1.92582e-06
1.92582e-06
1.92582e-06
1.92582e-06
1.92582e-06
1.92582e-06
1.92582e-06
1.92582e-06
1.92582e-06
1.92582e-06
1.92582e-06
1.92582e-06
1.92582e-06
1.92582e-06
1.92582e-06
1.92582e-06
1.92582e-06
1.92582e-06
1.92582e-06
1.92582e-06
1.92582e-06
1.92582e-06
1.92582e-06
1.92582e-06
1.92582e-06
1.92582e-06
1.92582e-06
1.92582e-06
1.92582e-06
1.92582e-06
1.92582e-06
1.92583e-06
1.92583e-06
1.92583e-06
1.92583e-06
1.92584e-06
1.92584e-06
1.92585e-06
1.92586e-06
1.92585e-06
1.92481e-06
1.92516e-06
1.92545e-06
1.92567e-06
1.92582e-06
1.92592e-06
1.92598e-06
1.92602e-06
1.92604e-06
1.92605e-06
1.92606e-06
1.92607e-06
1.92607e-06
1.92607e-06
1.92607e-06
1.92607e-06
1.92607e-06
1.92607e-06
1.92607e-06
1.92607e-06
1.92607e-06
1.92607e-06
1.92607e-06
1.92607e-06
1.92607e-06
1.92607e-06
1.92607e-06
1.92607e-06
1.92607e-06
1.92607e-06
1.92607e-06
1.92607e-06
1.92607e-06
1.92607e-06
1.92607e-06
1.92607e-06
1.92607e-06
1.92607e-06
1.92607e-06
1.92607e-06
1.92607e-06
1.92607e-06
1.92607e-06
1.92607e-06
1.92607e-06
1.92607e-06
1.92607e-06
1.92607e-06
1.92607e-06
1.92607e-06
1.92607e-06
1.92607e-06
1.92608e-06
1.92608e-06
1.92608e-06
1.92609e-06
1.92609e-06
1.92609e-06
1.9261e-06
1.92609e-06
1.92493e-06
1.92535e-06
1.92569e-06
1.92593e-06
1.9261e-06
1.92621e-06
1.92627e-06
1.92631e-06
1.92633e-06
1.92634e-06
1.92635e-06
1.92635e-06
1.92635e-06
1.92635e-06
1.92635e-06
1.92635e-06
1.92635e-06
1.92635e-06
1.92635e-06
1.92635e-06
1.92635e-06
1.92635e-06
1.92635e-06
1.92635e-06
1.92635e-06
1.92635e-06
1.92635e-06
1.92635e-06
1.92635e-06
1.92635e-06
1.92635e-06
1.92635e-06
1.92635e-06
1.92635e-06
1.92635e-06
1.92635e-06
1.92635e-06
1.92635e-06
1.92635e-06
1.92635e-06
1.92635e-06
1.92635e-06
1.92635e-06
1.92635e-06
1.92635e-06
1.92635e-06
1.92635e-06
1.92635e-06
1.92635e-06
1.92635e-06
1.92635e-06
1.92635e-06
1.92636e-06
1.92636e-06
1.92636e-06
1.92636e-06
1.92637e-06
1.92637e-06
1.92638e-06
1.92637e-06
1.92508e-06
1.92558e-06
1.92597e-06
1.92625e-06
1.92643e-06
1.92654e-06
1.9266e-06
1.92663e-06
1.92665e-06
1.92666e-06
1.92666e-06
1.92666e-06
1.92666e-06
1.92666e-06
1.92666e-06
1.92666e-06
1.92666e-06
1.92666e-06
1.92666e-06
1.92666e-06
1.92666e-06
1.92666e-06
1.92666e-06
1.92666e-06
1.92666e-06
1.92666e-06
1.92666e-06
1.92666e-06
1.92666e-06
1.92666e-06
1.92666e-06
1.92666e-06
1.92666e-06
1.92666e-06
1.92666e-06
1.92666e-06
1.92666e-06
1.92666e-06
1.92666e-06
1.92666e-06
1.92666e-06
1.92666e-06
1.92666e-06
1.92666e-06
1.92666e-06
1.92666e-06
1.92666e-06
1.92666e-06
1.92666e-06
1.92666e-06
1.92667e-06
1.92667e-06
1.92667e-06
1.92667e-06
1.92667e-06
1.92668e-06
1.92668e-06
1.92668e-06
1.92669e-06
1.92668e-06
1.92525e-06
1.92586e-06
1.92631e-06
1.92662e-06
1.92681e-06
1.92691e-06
1.92697e-06
1.927e-06
1.92701e-06
1.92702e-06
1.92702e-06
1.92702e-06
1.92701e-06
1.92701e-06
1.92701e-06
1.92701e-06
1.92701e-06
1.92701e-06
1.92701e-06
1.92701e-06
1.92701e-06
1.92701e-06
1.92701e-06
1.92701e-06
1.92701e-06
1.92701e-06
1.92701e-06
1.92701e-06
1.92701e-06
1.92701e-06
1.92701e-06
1.92701e-06
1.92701e-06
1.92701e-06
1.92701e-06
1.92701e-06
1.92701e-06
1.92701e-06
1.92701e-06
1.92701e-06
1.92701e-06
1.92701e-06
1.92701e-06
1.92701e-06
1.92701e-06
1.92701e-06
1.92701e-06
1.92701e-06
1.92701e-06
1.92701e-06
1.92701e-06
1.92702e-06
1.92702e-06
1.92702e-06
1.92702e-06
1.92702e-06
1.92703e-06
1.92703e-06
1.92703e-06
1.92702e-06
1.92548e-06
1.9262e-06
1.92672e-06
1.92705e-06
1.92724e-06
1.92734e-06
1.92739e-06
1.92741e-06
1.92741e-06
1.92741e-06
1.92741e-06
1.92741e-06
1.9274e-06
1.9274e-06
1.9274e-06
1.9274e-06
1.9274e-06
1.9274e-06
1.9274e-06
1.9274e-06
1.9274e-06
1.9274e-06
1.9274e-06
1.9274e-06
1.9274e-06
1.9274e-06
1.9274e-06
1.9274e-06
1.9274e-06
1.9274e-06
1.9274e-06
1.9274e-06
1.9274e-06
1.9274e-06
1.9274e-06
1.9274e-06
1.9274e-06
1.9274e-06
1.9274e-06
1.9274e-06
1.9274e-06
1.9274e-06
1.9274e-06
1.9274e-06
1.9274e-06
1.9274e-06
1.9274e-06
1.9274e-06
1.9274e-06
1.9274e-06
1.9274e-06
1.9274e-06
1.9274e-06
1.92741e-06
1.92741e-06
1.92741e-06
1.92741e-06
1.92741e-06
1.92742e-06
1.9274e-06
1.92575e-06
1.92662e-06
1.92721e-06
1.92756e-06
1.92775e-06
1.92783e-06
1.92786e-06
1.92787e-06
1.92786e-06
1.92785e-06
1.92785e-06
1.92784e-06
1.92784e-06
1.92783e-06
1.92783e-06
1.92783e-06
1.92783e-06
1.92783e-06
1.92783e-06
1.92783e-06
1.92783e-06
1.92783e-06
1.92783e-06
1.92783e-06
1.92783e-06
1.92783e-06
1.92783e-06
1.92783e-06
1.92783e-06
1.92783e-06
1.92783e-06
1.92783e-06
1.92783e-06
1.92783e-06
1.92783e-06
1.92783e-06
1.92783e-06
1.92783e-06
1.92783e-06
1.92783e-06
1.92783e-06
1.92783e-06
1.92783e-06
1.92783e-06
1.92783e-06
1.92783e-06
1.92783e-06
1.92783e-06
1.92783e-06
1.92783e-06
1.92783e-06
1.92783e-06
1.92783e-06
1.92783e-06
1.92784e-06
1.92784e-06
1.92784e-06
1.92784e-06
1.92784e-06
1.92783e-06
1.9261e-06
1.92714e-06
1.92781e-06
1.92816e-06
1.92832e-06
1.92838e-06
1.92839e-06
1.92837e-06
1.92836e-06
1.92834e-06
1.92833e-06
1.92832e-06
1.92832e-06
1.92831e-06
1.92831e-06
1.92831e-06
1.92831e-06
1.92831e-06
1.92831e-06
1.92831e-06
1.92831e-06
1.92831e-06
1.92831e-06
1.92831e-06
1.92831e-06
1.92831e-06
1.92831e-06
1.92831e-06
1.92831e-06
1.92831e-06
1.92831e-06
1.92831e-06
1.92831e-06
1.92831e-06
1.92831e-06
1.92831e-06
1.92831e-06
1.92831e-06
1.92831e-06
1.92831e-06
1.92831e-06
1.92831e-06
1.92831e-06
1.92831e-06
1.92831e-06
1.92831e-06
1.92831e-06
1.92831e-06
1.92831e-06
1.92831e-06
1.92831e-06
1.92831e-06
1.92831e-06
1.92831e-06
1.92831e-06
1.92831e-06
1.92831e-06
1.92831e-06
1.92831e-06
1.9283e-06
1.92655e-06
1.9278e-06
1.92852e-06
1.92886e-06
1.92898e-06
1.929e-06
1.92897e-06
1.92894e-06
1.92891e-06
1.92889e-06
1.92887e-06
1.92886e-06
1.92885e-06
1.92884e-06
1.92884e-06
1.92884e-06
1.92884e-06
1.92884e-06
1.92884e-06
1.92884e-06
1.92884e-06
1.92884e-06
1.92884e-06
1.92884e-06
1.92884e-06
1.92884e-06
1.92884e-06
1.92884e-06
1.92884e-06
1.92884e-06
1.92884e-06
1.92884e-06
1.92884e-06
1.92884e-06
1.92884e-06
1.92884e-06
1.92884e-06
1.92884e-06
1.92884e-06
1.92884e-06
1.92884e-06
1.92884e-06
1.92884e-06
1.92884e-06
1.92884e-06
1.92884e-06
1.92884e-06
1.92884e-06
1.92884e-06
1.92884e-06
1.92884e-06
1.92884e-06
1.92884e-06
1.92884e-06
1.92884e-06
1.92884e-06
1.92884e-06
1.92883e-06
1.92884e-06
1.92882e-06
1.92714e-06
1.92864e-06
1.92939e-06
1.92967e-06
1.92972e-06
1.92969e-06
1.92962e-06
1.92957e-06
1.92952e-06
1.92949e-06
1.92946e-06
1.92945e-06
1.92944e-06
1.92943e-06
1.92943e-06
1.92943e-06
1.92942e-06
1.92942e-06
1.92942e-06
1.92942e-06
1.92942e-06
1.92942e-06
1.92942e-06
1.92942e-06
1.92942e-06
1.92942e-06
1.92942e-06
1.92942e-06
1.92942e-06
1.92942e-06
1.92942e-06
1.92942e-06
1.92942e-06
1.92942e-06
1.92942e-06
1.92942e-06
1.92942e-06
1.92942e-06
1.92942e-06
1.92942e-06
1.92942e-06
1.92942e-06
1.92942e-06
1.92942e-06
1.92942e-06
1.92942e-06
1.92942e-06
1.92942e-06
1.92942e-06
1.92942e-06
1.92942e-06
1.92942e-06
1.92942e-06
1.92942e-06
1.92942e-06
1.92942e-06
1.92942e-06
1.92942e-06
1.92942e-06
1.9294e-06
1.92795e-06
1.92971e-06
1.93044e-06
1.93062e-06
1.93057e-06
1.93045e-06
1.93035e-06
1.93026e-06
1.9302e-06
1.93015e-06
1.93012e-06
1.9301e-06
1.93009e-06
1.93008e-06
1.93008e-06
1.93008e-06
1.93008e-06
1.93007e-06
1.93007e-06
1.93007e-06
1.93007e-06
1.93007e-06
1.93007e-06
1.93007e-06
1.93007e-06
1.93007e-06
1.93007e-06
1.93007e-06
1.93007e-06
1.93007e-06
1.93007e-06
1.93007e-06
1.93007e-06
1.93007e-06
1.93007e-06
1.93007e-06
1.93007e-06
1.93007e-06
1.93007e-06
1.93007e-06
1.93007e-06
1.93007e-06
1.93007e-06
1.93007e-06
1.93007e-06
1.93007e-06
1.93007e-06
1.93007e-06
1.93007e-06
1.93007e-06
1.93007e-06
1.93007e-06
1.93007e-06
1.93007e-06
1.93007e-06
1.93007e-06
1.93007e-06
1.93006e-06
1.93006e-06
1.93004e-06
1.92908e-06
1.9311e-06
1.93171e-06
1.9317e-06
1.93151e-06
1.9313e-06
1.93114e-06
1.93102e-06
1.93094e-06
1.93089e-06
1.93085e-06
1.93083e-06
1.93082e-06
1.93081e-06
1.9308e-06
1.9308e-06
1.9308e-06
1.9308e-06
1.9308e-06
1.9308e-06
1.9308e-06
1.9308e-06
1.9308e-06
1.9308e-06
1.9308e-06
1.9308e-06
1.9308e-06
1.9308e-06
1.9308e-06
1.9308e-06
1.9308e-06
1.9308e-06
1.9308e-06
1.9308e-06
1.9308e-06
1.9308e-06
1.9308e-06
1.9308e-06
1.9308e-06
1.9308e-06
1.9308e-06
1.9308e-06
1.9308e-06
1.9308e-06
1.9308e-06
1.9308e-06
1.9308e-06
1.9308e-06
1.9308e-06
1.9308e-06
1.9308e-06
1.93079e-06
1.93079e-06
1.93079e-06
1.93079e-06
1.93079e-06
1.93078e-06
1.93078e-06
1.93078e-06
1.93076e-06
1.93076e-06
1.93293e-06
1.93324e-06
1.93294e-06
1.93255e-06
1.93224e-06
1.93202e-06
1.93187e-06
1.93177e-06
1.9317e-06
1.93166e-06
1.93164e-06
1.93162e-06
1.93161e-06
1.93161e-06
1.9316e-06
1.9316e-06
1.9316e-06
1.9316e-06
1.9316e-06
1.9316e-06
1.9316e-06
1.9316e-06
1.9316e-06
1.9316e-06
1.9316e-06
1.9316e-06
1.9316e-06
1.9316e-06
1.9316e-06
1.9316e-06
1.9316e-06
1.9316e-06
1.9316e-06
1.9316e-06
1.9316e-06
1.9316e-06
1.9316e-06
1.9316e-06
1.9316e-06
1.9316e-06
1.9316e-06
1.9316e-06
1.9316e-06
1.9316e-06
1.9316e-06
1.9316e-06
1.9316e-06
1.9316e-06
1.9316e-06
1.9316e-06
1.9316e-06
1.9316e-06
1.93159e-06
1.93159e-06
1.93159e-06
1.93159e-06
1.93158e-06
1.93158e-06
1.93156e-06
1.93337e-06
1.93534e-06
1.93504e-06
1.93431e-06
1.93369e-06
1.93326e-06
1.93298e-06
1.93279e-06
1.93268e-06
1.93261e-06
1.93256e-06
1.93254e-06
1.93252e-06
1.93251e-06
1.9325e-06
1.9325e-06
1.9325e-06
1.9325e-06
1.9325e-06
1.9325e-06
1.93249e-06
1.93249e-06
1.93249e-06
1.93249e-06
1.93249e-06
1.93249e-06
1.93249e-06
1.93249e-06
1.93249e-06
1.93249e-06
1.93249e-06
1.93249e-06
1.93249e-06
1.93249e-06
1.93249e-06
1.93249e-06
1.93249e-06
1.93249e-06
1.93249e-06
1.93249e-06
1.93249e-06
1.93249e-06
1.93249e-06
1.93249e-06
1.93249e-06
1.93249e-06
1.93249e-06
1.93249e-06
1.93249e-06
1.93249e-06
1.93249e-06
1.93249e-06
1.93249e-06
1.93249e-06
1.93249e-06
1.93248e-06
1.93248e-06
1.93247e-06
1.93247e-06
1.93245e-06
1.93771e-06
1.93848e-06
1.9371e-06
1.93579e-06
1.93491e-06
1.93436e-06
1.93403e-06
1.93382e-06
1.93369e-06
1.93361e-06
1.93357e-06
1.93354e-06
1.93352e-06
1.93351e-06
1.9335e-06
1.9335e-06
1.9335e-06
1.93349e-06
1.93349e-06
1.93349e-06
1.93349e-06
1.93349e-06
1.93349e-06
1.93349e-06
1.93349e-06
1.93349e-06
1.93349e-06
1.93349e-06
1.93349e-06
1.93349e-06
1.93349e-06
1.93349e-06
1.93349e-06
1.93349e-06
1.93349e-06
1.93349e-06
1.93349e-06
1.93349e-06
1.93349e-06
1.93349e-06
1.93349e-06
1.93349e-06
1.93349e-06
1.93349e-06
1.93349e-06
1.93349e-06
1.93349e-06
1.93349e-06
1.93349e-06
1.93349e-06
1.93349e-06
1.93349e-06
1.93349e-06
1.93349e-06
1.93348e-06
1.93348e-06
1.93347e-06
1.93347e-06
1.93346e-06
1.93345e-06
1.94631e-06
1.94406e-06
1.94138e-06
1.93965e-06
1.93868e-06
1.93814e-06
1.93783e-06
1.93765e-06
1.93754e-06
1.93748e-06
1.93744e-06
1.93741e-06
1.9374e-06
1.93739e-06
1.93739e-06
1.93738e-06
1.93738e-06
1.93738e-06
1.93738e-06
1.93738e-06
1.93738e-06
1.93738e-06
1.93738e-06
1.93738e-06
1.93738e-06
1.93738e-06
1.93738e-06
1.93738e-06
1.93738e-06
1.93738e-06
1.93738e-06
1.93738e-06
1.93738e-06
1.93738e-06
1.93738e-06
1.93738e-06
1.93738e-06
1.93738e-06
1.93738e-06
1.93738e-06
1.93738e-06
1.93738e-06
1.93738e-06
1.93738e-06
1.93738e-06
1.93738e-06
1.93738e-06
1.93738e-06
1.93738e-06
1.93738e-06
1.93738e-06
1.93738e-06
1.93737e-06
1.93737e-06
1.93737e-06
1.93737e-06
1.93736e-06
1.93736e-06
1.93735e-06
1.93734e-06
4.13442e-06
4.16768e-06
4.17469e-06
4.17701e-06
4.17818e-06
4.17891e-06
4.17942e-06
4.1798e-06
4.18008e-06
4.18029e-06
4.18046e-06
4.18059e-06
4.18069e-06
4.18076e-06
4.18083e-06
4.18088e-06
4.18091e-06
4.18094e-06
4.18097e-06
4.18099e-06
4.181e-06
4.18101e-06
4.18102e-06
4.18103e-06
4.18104e-06
4.18104e-06
4.18105e-06
4.18105e-06
4.18105e-06
4.18105e-06
4.18106e-06
4.18106e-06
4.18106e-06
4.18106e-06
4.18106e-06
4.18106e-06
4.18106e-06
4.18106e-06
4.18106e-06
4.18106e-06
4.18106e-06
4.18106e-06
4.18106e-06
4.18106e-06
4.18106e-06
4.18106e-06
4.18106e-06
4.18106e-06
4.18106e-06
4.18106e-06
4.18106e-06
4.18106e-06
4.18105e-06
4.18105e-06
4.18104e-06
4.18103e-06
4.18103e-06
4.18101e-06
4.181e-06
4.18099e-06
-1.82707e-07
-2.65793e-07
-2.86448e-07
-2.9448e-07
-2.98413e-07
-3.00618e-07
-3.01955e-07
-3.0281e-07
-3.03376e-07
-3.03762e-07
-3.04032e-07
-3.04223e-07
-3.04362e-07
-3.04464e-07
-3.04539e-07
-3.04596e-07
-3.04639e-07
-3.04673e-07
-3.04698e-07
-3.04718e-07
-3.04734e-07
-3.04746e-07
-3.04756e-07
-3.04764e-07
-3.0477e-07
-3.04775e-07
-3.04779e-07
-3.04782e-07
-3.04785e-07
-3.04787e-07
-3.04788e-07
-3.0479e-07
-3.04791e-07
-3.04792e-07
-3.04792e-07
-3.04793e-07
-3.04793e-07
-3.04794e-07
-3.04794e-07
-3.04794e-07
-3.04795e-07
-3.04795e-07
-3.04795e-07
-3.04795e-07
-3.04795e-07
-3.04795e-07
-3.04796e-07
-3.04796e-07
-3.04796e-07
-3.04797e-07
-3.04798e-07
-3.04799e-07
-3.048e-07
-3.04802e-07
-3.04805e-07
-3.04808e-07
-3.04811e-07
-3.04816e-07
-3.04821e-07
-2.99231e-07
)
;

boundaryField
{
    top
    {
        type            calculated;
        value           nonuniform List<scalar> 
60
(
-1.72815e-07
-2.60403e-07
-2.82842e-07
-2.91695e-07
-2.96087e-07
-2.98574e-07
-3.00099e-07
-3.01084e-07
-3.01745e-07
-3.02202e-07
-3.02525e-07
-3.02758e-07
-3.02929e-07
-3.03056e-07
-3.03152e-07
-3.03225e-07
-3.03282e-07
-3.03326e-07
-3.0336e-07
-3.03388e-07
-3.03409e-07
-3.03426e-07
-3.0344e-07
-3.03451e-07
-3.0346e-07
-3.03467e-07
-3.03473e-07
-3.03478e-07
-3.03482e-07
-3.03485e-07
-3.03488e-07
-3.0349e-07
-3.03491e-07
-3.03493e-07
-3.03494e-07
-3.03495e-07
-3.03495e-07
-3.03496e-07
-3.03497e-07
-3.03497e-07
-3.03497e-07
-3.03498e-07
-3.03498e-07
-3.03498e-07
-3.03498e-07
-3.03499e-07
-3.03499e-07
-3.03499e-07
-3.035e-07
-3.035e-07
-3.03501e-07
-3.03502e-07
-3.03504e-07
-3.03506e-07
-3.03509e-07
-3.03512e-07
-3.03517e-07
-3.03522e-07
-3.03528e-07
-2.97963e-07
)
;
    }
    inlet
    {
        type            calculated;
        value           uniform 1.92428e-06;
    }
    outlet
    {
        type            calculated;
        value           nonuniform List<scalar> 
30
(
1.92455e-06
1.92458e-06
1.92461e-06
1.92465e-06
1.92471e-06
1.92479e-06
1.92488e-06
1.92499e-06
1.92512e-06
1.92527e-06
1.92544e-06
1.92563e-06
1.92585e-06
1.92609e-06
1.92637e-06
1.92668e-06
1.92702e-06
1.9274e-06
1.92783e-06
1.9283e-06
1.92882e-06
1.9294e-06
1.93004e-06
1.93076e-06
1.93156e-06
1.93245e-06
1.93345e-06
1.93734e-06
4.18099e-06
-2.99231e-07
)
;
    }
    bottom
    {
        type            symmetryPlane;
    }
    frontAndBack
    {
        type            empty;
    }
}


// ************************************************************************* //
