/*--------------------------------*- C++ -*----------------------------------*\
| =========                 |                                                 |
| \\      /  F ield         | OpenFOAM: The Open Source CFD Toolbox           |
|  \\    /   O peration     | Version:  2412                                  |
|   \\  /    A nd           | Website:  www.openfoam.com                      |
|    \\/     M anipulation  |                                                 |
\*---------------------------------------------------------------------------*/
FoamFile
{
    version     2.0;
    format      ascii;
    arch        "LSB;label=32;scalar=64";
    class       volScalarField;
    location    "0.005";
    object      rho;
}
// * * * * * * * * * * * * * * * * * * * * * * * * * * * * * * * * * * * * * //

dimensions      [1 -3 0 0 0 0 0];

internalField   nonuniform List<scalar> 
1800
(
3.6089e-06
3.6089e-06
3.6089e-06
3.60891e-06
3.60891e-06
3.60891e-06
3.60891e-06
3.60891e-06
3.60891e-06
3.60891e-06
3.60891e-06
3.60891e-06
3.60891e-06
3.60891e-06
3.60891e-06
3.60891e-06
3.60891e-06
3.60891e-06
3.60891e-06
3.60891e-06
3.60891e-06
3.60891e-06
3.60891e-06
3.60891e-06
3.60891e-06
3.60891e-06
3.60891e-06
3.60891e-06
3.60891e-06
3.60891e-06
3.60891e-06
3.60891e-06
3.60891e-06
3.60891e-06
3.60891e-06
3.60891e-06
3.60891e-06
3.60891e-06
3.60891e-06
3.60891e-06
3.60891e-06
3.60891e-06
3.60891e-06
3.60891e-06
3.60891e-06
3.60891e-06
3.60891e-06
3.60891e-06
3.60891e-06
3.60891e-06
3.60891e-06
3.60891e-06
3.60891e-06
3.60891e-06
3.60891e-06
3.60891e-06
3.60891e-06
3.60891e-06
3.60891e-06
3.60891e-06
3.6089e-06
3.6089e-06
3.60891e-06
3.60891e-06
3.60891e-06
3.60891e-06
3.60891e-06
3.60891e-06
3.60891e-06
3.60891e-06
3.60891e-06
3.60891e-06
3.60891e-06
3.60891e-06
3.60891e-06
3.60891e-06
3.60891e-06
3.60891e-06
3.60891e-06
3.60891e-06
3.60891e-06
3.60891e-06
3.60891e-06
3.60891e-06
3.60891e-06
3.60891e-06
3.60891e-06
3.60891e-06
3.60891e-06
3.60891e-06
3.60891e-06
3.60891e-06
3.60891e-06
3.60891e-06
3.60891e-06
3.60891e-06
3.60891e-06
3.60891e-06
3.60891e-06
3.60891e-06
3.60891e-06
3.60891e-06
3.60891e-06
3.60891e-06
3.60891e-06
3.60891e-06
3.60891e-06
3.60891e-06
3.60891e-06
3.60891e-06
3.60891e-06
3.60891e-06
3.60891e-06
3.60891e-06
3.60891e-06
3.60891e-06
3.60891e-06
3.60892e-06
3.60892e-06
3.60892e-06
3.6089e-06
3.60891e-06
3.60891e-06
3.60891e-06
3.60892e-06
3.60892e-06
3.60892e-06
3.60892e-06
3.60892e-06
3.60892e-06
3.60892e-06
3.60892e-06
3.60892e-06
3.60892e-06
3.60892e-06
3.60892e-06
3.60892e-06
3.60892e-06
3.60892e-06
3.60892e-06
3.60892e-06
3.60892e-06
3.60892e-06
3.60892e-06
3.60892e-06
3.60892e-06
3.60892e-06
3.60892e-06
3.60892e-06
3.60892e-06
3.60892e-06
3.60892e-06
3.60892e-06
3.60892e-06
3.60892e-06
3.60892e-06
3.60892e-06
3.60892e-06
3.60892e-06
3.60892e-06
3.60892e-06
3.60892e-06
3.60892e-06
3.60892e-06
3.60892e-06
3.60892e-06
3.60892e-06
3.60892e-06
3.60892e-06
3.60892e-06
3.60892e-06
3.60892e-06
3.60892e-06
3.60892e-06
3.60892e-06
3.60892e-06
3.60892e-06
3.60892e-06
3.60893e-06
3.60893e-06
3.60891e-06
3.60891e-06
3.60892e-06
3.60892e-06
3.60892e-06
3.60893e-06
3.60893e-06
3.60893e-06
3.60893e-06
3.60893e-06
3.60893e-06
3.60893e-06
3.60893e-06
3.60893e-06
3.60893e-06
3.60893e-06
3.60893e-06
3.60893e-06
3.60893e-06
3.60893e-06
3.60893e-06
3.60893e-06
3.60893e-06
3.60893e-06
3.60893e-06
3.60893e-06
3.60893e-06
3.60893e-06
3.60893e-06
3.60893e-06
3.60893e-06
3.60893e-06
3.60893e-06
3.60893e-06
3.60893e-06
3.60893e-06
3.60893e-06
3.60893e-06
3.60893e-06
3.60893e-06
3.60893e-06
3.60893e-06
3.60893e-06
3.60893e-06
3.60893e-06
3.60893e-06
3.60893e-06
3.60893e-06
3.60893e-06
3.60893e-06
3.60893e-06
3.60893e-06
3.60893e-06
3.60893e-06
3.60893e-06
3.60893e-06
3.60893e-06
3.60894e-06
3.60894e-06
3.60894e-06
3.60891e-06
3.60892e-06
3.60893e-06
3.60893e-06
3.60894e-06
3.60894e-06
3.60895e-06
3.60895e-06
3.60895e-06
3.60895e-06
3.60895e-06
3.60895e-06
3.60895e-06
3.60895e-06
3.60895e-06
3.60895e-06
3.60895e-06
3.60895e-06
3.60895e-06
3.60895e-06
3.60895e-06
3.60895e-06
3.60895e-06
3.60895e-06
3.60895e-06
3.60895e-06
3.60895e-06
3.60895e-06
3.60895e-06
3.60895e-06
3.60895e-06
3.60895e-06
3.60895e-06
3.60895e-06
3.60895e-06
3.60895e-06
3.60895e-06
3.60895e-06
3.60895e-06
3.60895e-06
3.60895e-06
3.60895e-06
3.60895e-06
3.60895e-06
3.60895e-06
3.60895e-06
3.60895e-06
3.60895e-06
3.60895e-06
3.60895e-06
3.60895e-06
3.60895e-06
3.60895e-06
3.60895e-06
3.60895e-06
3.60895e-06
3.60895e-06
3.60896e-06
3.60896e-06
3.60896e-06
3.60891e-06
3.60893e-06
3.60894e-06
3.60895e-06
3.60896e-06
3.60897e-06
3.60897e-06
3.60897e-06
3.60897e-06
3.60898e-06
3.60898e-06
3.60898e-06
3.60898e-06
3.60898e-06
3.60898e-06
3.60898e-06
3.60898e-06
3.60898e-06
3.60898e-06
3.60898e-06
3.60898e-06
3.60898e-06
3.60898e-06
3.60898e-06
3.60898e-06
3.60898e-06
3.60898e-06
3.60898e-06
3.60898e-06
3.60898e-06
3.60898e-06
3.60898e-06
3.60898e-06
3.60898e-06
3.60898e-06
3.60898e-06
3.60898e-06
3.60898e-06
3.60898e-06
3.60898e-06
3.60898e-06
3.60898e-06
3.60898e-06
3.60898e-06
3.60898e-06
3.60898e-06
3.60898e-06
3.60898e-06
3.60898e-06
3.60898e-06
3.60898e-06
3.60898e-06
3.60898e-06
3.60898e-06
3.60898e-06
3.60898e-06
3.60898e-06
3.60899e-06
3.60899e-06
3.609e-06
3.60892e-06
3.60894e-06
3.60896e-06
3.60898e-06
3.60899e-06
3.609e-06
3.60901e-06
3.60901e-06
3.60901e-06
3.60902e-06
3.60902e-06
3.60902e-06
3.60902e-06
3.60902e-06
3.60902e-06
3.60902e-06
3.60902e-06
3.60902e-06
3.60902e-06
3.60902e-06
3.60902e-06
3.60902e-06
3.60902e-06
3.60902e-06
3.60902e-06
3.60902e-06
3.60902e-06
3.60902e-06
3.60902e-06
3.60902e-06
3.60902e-06
3.60902e-06
3.60902e-06
3.60902e-06
3.60902e-06
3.60902e-06
3.60902e-06
3.60902e-06
3.60902e-06
3.60902e-06
3.60902e-06
3.60902e-06
3.60902e-06
3.60902e-06
3.60902e-06
3.60902e-06
3.60902e-06
3.60902e-06
3.60902e-06
3.60902e-06
3.60902e-06
3.60902e-06
3.60902e-06
3.60902e-06
3.60902e-06
3.60902e-06
3.60902e-06
3.60903e-06
3.60904e-06
3.60904e-06
3.60893e-06
3.60897e-06
3.609e-06
3.60902e-06
3.60904e-06
3.60905e-06
3.60906e-06
3.60907e-06
3.60907e-06
3.60907e-06
3.60907e-06
3.60907e-06
3.60907e-06
3.60907e-06
3.60907e-06
3.60907e-06
3.60907e-06
3.60907e-06
3.60907e-06
3.60907e-06
3.60907e-06
3.60907e-06
3.60907e-06
3.60907e-06
3.60907e-06
3.60907e-06
3.60907e-06
3.60907e-06
3.60907e-06
3.60907e-06
3.60907e-06
3.60907e-06
3.60907e-06
3.60907e-06
3.60907e-06
3.60907e-06
3.60907e-06
3.60907e-06
3.60907e-06
3.60907e-06
3.60907e-06
3.60907e-06
3.60907e-06
3.60907e-06
3.60907e-06
3.60907e-06
3.60907e-06
3.60907e-06
3.60907e-06
3.60907e-06
3.60907e-06
3.60907e-06
3.60907e-06
3.60908e-06
3.60908e-06
3.60908e-06
3.60908e-06
3.60909e-06
3.6091e-06
3.6091e-06
3.60895e-06
3.609e-06
3.60905e-06
3.60908e-06
3.60911e-06
3.60913e-06
3.60914e-06
3.60914e-06
3.60915e-06
3.60915e-06
3.60915e-06
3.60915e-06
3.60915e-06
3.60915e-06
3.60915e-06
3.60915e-06
3.60915e-06
3.60915e-06
3.60915e-06
3.60915e-06
3.60915e-06
3.60915e-06
3.60915e-06
3.60915e-06
3.60915e-06
3.60915e-06
3.60915e-06
3.60915e-06
3.60915e-06
3.60915e-06
3.60915e-06
3.60915e-06
3.60915e-06
3.60915e-06
3.60915e-06
3.60915e-06
3.60915e-06
3.60915e-06
3.60915e-06
3.60915e-06
3.60915e-06
3.60915e-06
3.60915e-06
3.60915e-06
3.60915e-06
3.60915e-06
3.60915e-06
3.60915e-06
3.60915e-06
3.60915e-06
3.60915e-06
3.60915e-06
3.60915e-06
3.60916e-06
3.60916e-06
3.60916e-06
3.60917e-06
3.60918e-06
3.60919e-06
3.60919e-06
3.60897e-06
3.60905e-06
3.60911e-06
3.60916e-06
3.6092e-06
3.60922e-06
3.60924e-06
3.60925e-06
3.60926e-06
3.60926e-06
3.60926e-06
3.60926e-06
3.60926e-06
3.60926e-06
3.60926e-06
3.60926e-06
3.60926e-06
3.60926e-06
3.60926e-06
3.60926e-06
3.60926e-06
3.60926e-06
3.60926e-06
3.60926e-06
3.60926e-06
3.60926e-06
3.60926e-06
3.60926e-06
3.60926e-06
3.60926e-06
3.60926e-06
3.60926e-06
3.60926e-06
3.60926e-06
3.60926e-06
3.60926e-06
3.60926e-06
3.60926e-06
3.60926e-06
3.60926e-06
3.60926e-06
3.60926e-06
3.60926e-06
3.60926e-06
3.60926e-06
3.60926e-06
3.60926e-06
3.60926e-06
3.60926e-06
3.60926e-06
3.60926e-06
3.60926e-06
3.60926e-06
3.60927e-06
3.60927e-06
3.60927e-06
3.60928e-06
3.60929e-06
3.6093e-06
3.60931e-06
3.609e-06
3.60911e-06
3.6092e-06
3.60928e-06
3.60933e-06
3.60936e-06
3.60938e-06
3.60939e-06
3.6094e-06
3.6094e-06
3.6094e-06
3.60941e-06
3.60941e-06
3.60941e-06
3.60941e-06
3.60941e-06
3.60941e-06
3.60941e-06
3.60941e-06
3.60941e-06
3.60941e-06
3.60941e-06
3.60941e-06
3.60941e-06
3.60941e-06
3.60941e-06
3.60941e-06
3.60941e-06
3.60941e-06
3.60941e-06
3.60941e-06
3.60941e-06
3.60941e-06
3.60941e-06
3.60941e-06
3.60941e-06
3.60941e-06
3.60941e-06
3.60941e-06
3.60941e-06
3.60941e-06
3.60941e-06
3.60941e-06
3.60941e-06
3.60941e-06
3.60941e-06
3.60941e-06
3.60941e-06
3.60941e-06
3.60941e-06
3.60941e-06
3.60941e-06
3.60941e-06
3.60941e-06
3.60941e-06
3.60942e-06
3.60943e-06
3.60944e-06
3.60946e-06
3.60946e-06
3.60905e-06
3.6092e-06
3.60933e-06
3.60943e-06
3.60949e-06
3.60953e-06
3.60956e-06
3.60958e-06
3.60959e-06
3.60959e-06
3.60959e-06
3.60959e-06
3.60959e-06
3.6096e-06
3.6096e-06
3.6096e-06
3.6096e-06
3.6096e-06
3.6096e-06
3.6096e-06
3.6096e-06
3.6096e-06
3.6096e-06
3.6096e-06
3.6096e-06
3.6096e-06
3.6096e-06
3.6096e-06
3.6096e-06
3.6096e-06
3.6096e-06
3.6096e-06
3.6096e-06
3.6096e-06
3.6096e-06
3.6096e-06
3.6096e-06
3.6096e-06
3.6096e-06
3.6096e-06
3.6096e-06
3.6096e-06
3.6096e-06
3.6096e-06
3.6096e-06
3.6096e-06
3.6096e-06
3.6096e-06
3.6096e-06
3.6096e-06
3.6096e-06
3.6096e-06
3.6096e-06
3.6096e-06
3.60961e-06
3.60961e-06
3.60962e-06
3.60963e-06
3.60965e-06
3.60966e-06
3.60912e-06
3.60933e-06
3.6095e-06
3.60962e-06
3.60971e-06
3.60976e-06
3.6098e-06
3.60982e-06
3.60983e-06
3.60983e-06
3.60984e-06
3.60984e-06
3.60984e-06
3.60984e-06
3.60984e-06
3.60984e-06
3.60984e-06
3.60984e-06
3.60984e-06
3.60984e-06
3.60984e-06
3.60984e-06
3.60984e-06
3.60984e-06
3.60984e-06
3.60984e-06
3.60984e-06
3.60984e-06
3.60984e-06
3.60984e-06
3.60984e-06
3.60984e-06
3.60984e-06
3.60984e-06
3.60984e-06
3.60984e-06
3.60984e-06
3.60984e-06
3.60984e-06
3.60984e-06
3.60984e-06
3.60984e-06
3.60984e-06
3.60984e-06
3.60984e-06
3.60984e-06
3.60984e-06
3.60984e-06
3.60984e-06
3.60984e-06
3.60984e-06
3.60984e-06
3.60984e-06
3.60985e-06
3.60985e-06
3.60986e-06
3.60987e-06
3.60988e-06
3.6099e-06
3.6099e-06
3.6092e-06
3.60949e-06
3.60972e-06
3.60988e-06
3.60999e-06
3.61006e-06
3.6101e-06
3.61012e-06
3.61013e-06
3.61014e-06
3.61014e-06
3.61015e-06
3.61015e-06
3.61015e-06
3.61015e-06
3.61015e-06
3.61015e-06
3.61015e-06
3.61015e-06
3.61015e-06
3.61015e-06
3.61015e-06
3.61015e-06
3.61015e-06
3.61015e-06
3.61015e-06
3.61015e-06
3.61015e-06
3.61015e-06
3.61015e-06
3.61015e-06
3.61015e-06
3.61015e-06
3.61015e-06
3.61015e-06
3.61015e-06
3.61015e-06
3.61015e-06
3.61015e-06
3.61015e-06
3.61015e-06
3.61015e-06
3.61015e-06
3.61015e-06
3.61015e-06
3.61015e-06
3.61015e-06
3.61015e-06
3.61015e-06
3.61015e-06
3.61015e-06
3.61015e-06
3.61015e-06
3.61015e-06
3.61016e-06
3.61017e-06
3.61018e-06
3.61019e-06
3.61022e-06
3.61022e-06
3.60932e-06
3.60971e-06
3.61e-06
3.61021e-06
3.61035e-06
3.61043e-06
3.61048e-06
3.6105e-06
3.61052e-06
3.61053e-06
3.61053e-06
3.61053e-06
3.61053e-06
3.61053e-06
3.61053e-06
3.61053e-06
3.61053e-06
3.61053e-06
3.61053e-06
3.61053e-06
3.61053e-06
3.61053e-06
3.61053e-06
3.61053e-06
3.61053e-06
3.61053e-06
3.61053e-06
3.61053e-06
3.61053e-06
3.61053e-06
3.61053e-06
3.61053e-06
3.61053e-06
3.61053e-06
3.61053e-06
3.61053e-06
3.61053e-06
3.61053e-06
3.61053e-06
3.61053e-06
3.61053e-06
3.61053e-06
3.61053e-06
3.61053e-06
3.61053e-06
3.61053e-06
3.61053e-06
3.61053e-06
3.61053e-06
3.61053e-06
3.61053e-06
3.61053e-06
3.61054e-06
3.61054e-06
3.61055e-06
3.61056e-06
3.61057e-06
3.61058e-06
3.61061e-06
3.6106e-06
3.60949e-06
3.60999e-06
3.61038e-06
3.61064e-06
3.6108e-06
3.6109e-06
3.61095e-06
3.61098e-06
3.61099e-06
3.611e-06
3.611e-06
3.61101e-06
3.61101e-06
3.61101e-06
3.61101e-06
3.61101e-06
3.61101e-06
3.61101e-06
3.61101e-06
3.61101e-06
3.61101e-06
3.61101e-06
3.61101e-06
3.61101e-06
3.61101e-06
3.61101e-06
3.61101e-06
3.61101e-06
3.61101e-06
3.61101e-06
3.61101e-06
3.61101e-06
3.61101e-06
3.61101e-06
3.61101e-06
3.61101e-06
3.61101e-06
3.61101e-06
3.61101e-06
3.61101e-06
3.61101e-06
3.61101e-06
3.61101e-06
3.61101e-06
3.61101e-06
3.61101e-06
3.61101e-06
3.61101e-06
3.61101e-06
3.61101e-06
3.61101e-06
3.61101e-06
3.61101e-06
3.61102e-06
3.61102e-06
3.61103e-06
3.61104e-06
3.61106e-06
3.61109e-06
3.61108e-06
3.6097e-06
3.61037e-06
3.61085e-06
3.61117e-06
3.61137e-06
3.61147e-06
3.61153e-06
3.61156e-06
3.61158e-06
3.61158e-06
3.61159e-06
3.61159e-06
3.61159e-06
3.61159e-06
3.61159e-06
3.61159e-06
3.61159e-06
3.61159e-06
3.61159e-06
3.61159e-06
3.61159e-06
3.61159e-06
3.61159e-06
3.61159e-06
3.61159e-06
3.61159e-06
3.61159e-06
3.61159e-06
3.61159e-06
3.61159e-06
3.61159e-06
3.61159e-06
3.61159e-06
3.61159e-06
3.61159e-06
3.61159e-06
3.61159e-06
3.61159e-06
3.61159e-06
3.61159e-06
3.61159e-06
3.61159e-06
3.61159e-06
3.61159e-06
3.61159e-06
3.61159e-06
3.61159e-06
3.61159e-06
3.61159e-06
3.61159e-06
3.61159e-06
3.61159e-06
3.6116e-06
3.6116e-06
3.61161e-06
3.61161e-06
3.61163e-06
3.61164e-06
3.61167e-06
3.61165e-06
3.60999e-06
3.61085e-06
3.61147e-06
3.61185e-06
3.61207e-06
3.61218e-06
3.61224e-06
3.61227e-06
3.61228e-06
3.61229e-06
3.61229e-06
3.61229e-06
3.61229e-06
3.61229e-06
3.6123e-06
3.6123e-06
3.6123e-06
3.6123e-06
3.6123e-06
3.6123e-06
3.6123e-06
3.6123e-06
3.6123e-06
3.6123e-06
3.6123e-06
3.6123e-06
3.6123e-06
3.6123e-06
3.6123e-06
3.6123e-06
3.6123e-06
3.6123e-06
3.6123e-06
3.6123e-06
3.6123e-06
3.6123e-06
3.6123e-06
3.6123e-06
3.6123e-06
3.6123e-06
3.6123e-06
3.6123e-06
3.6123e-06
3.6123e-06
3.6123e-06
3.6123e-06
3.6123e-06
3.6123e-06
3.6123e-06
3.6123e-06
3.6123e-06
3.6123e-06
3.6123e-06
3.61231e-06
3.61231e-06
3.61232e-06
3.61233e-06
3.61234e-06
3.61237e-06
3.61235e-06
3.61038e-06
3.61149e-06
3.61225e-06
3.61269e-06
3.61293e-06
3.61305e-06
3.61311e-06
3.61313e-06
3.61314e-06
3.61314e-06
3.61315e-06
3.61315e-06
3.61315e-06
3.61315e-06
3.61315e-06
3.61315e-06
3.61315e-06
3.61315e-06
3.61315e-06
3.61315e-06
3.61315e-06
3.61315e-06
3.61315e-06
3.61315e-06
3.61315e-06
3.61315e-06
3.61315e-06
3.61315e-06
3.61315e-06
3.61315e-06
3.61315e-06
3.61315e-06
3.61315e-06
3.61315e-06
3.61315e-06
3.61315e-06
3.61315e-06
3.61315e-06
3.61315e-06
3.61315e-06
3.61315e-06
3.61315e-06
3.61315e-06
3.61315e-06
3.61315e-06
3.61315e-06
3.61315e-06
3.61315e-06
3.61315e-06
3.61315e-06
3.61315e-06
3.61315e-06
3.61315e-06
3.61316e-06
3.61316e-06
3.61317e-06
3.61318e-06
3.61319e-06
3.61321e-06
3.61319e-06
3.61089e-06
3.61234e-06
3.61325e-06
3.61375e-06
3.61399e-06
3.6141e-06
3.61415e-06
3.61416e-06
3.61417e-06
3.61417e-06
3.61417e-06
3.61417e-06
3.61417e-06
3.61417e-06
3.61417e-06
3.61417e-06
3.61417e-06
3.61417e-06
3.61417e-06
3.61417e-06
3.61417e-06
3.61417e-06
3.61417e-06
3.61417e-06
3.61417e-06
3.61417e-06
3.61417e-06
3.61417e-06
3.61417e-06
3.61417e-06
3.61417e-06
3.61417e-06
3.61417e-06
3.61417e-06
3.61417e-06
3.61417e-06
3.61417e-06
3.61417e-06
3.61417e-06
3.61417e-06
3.61417e-06
3.61417e-06
3.61417e-06
3.61417e-06
3.61417e-06
3.61417e-06
3.61417e-06
3.61417e-06
3.61417e-06
3.61417e-06
3.61417e-06
3.61417e-06
3.61418e-06
3.61418e-06
3.61418e-06
3.61419e-06
3.6142e-06
3.61421e-06
3.61423e-06
3.6142e-06
3.6116e-06
3.61345e-06
3.61452e-06
3.61506e-06
3.61529e-06
3.61537e-06
3.6154e-06
3.61541e-06
3.6154e-06
3.6154e-06
3.6154e-06
3.6154e-06
3.6154e-06
3.6154e-06
3.6154e-06
3.6154e-06
3.6154e-06
3.6154e-06
3.6154e-06
3.6154e-06
3.6154e-06
3.6154e-06
3.6154e-06
3.6154e-06
3.6154e-06
3.6154e-06
3.6154e-06
3.6154e-06
3.6154e-06
3.6154e-06
3.6154e-06
3.6154e-06
3.6154e-06
3.6154e-06
3.6154e-06
3.6154e-06
3.6154e-06
3.6154e-06
3.6154e-06
3.6154e-06
3.6154e-06
3.6154e-06
3.6154e-06
3.6154e-06
3.6154e-06
3.6154e-06
3.6154e-06
3.6154e-06
3.6154e-06
3.6154e-06
3.6154e-06
3.6154e-06
3.6154e-06
3.6154e-06
3.61541e-06
3.61541e-06
3.61542e-06
3.61542e-06
3.61544e-06
3.6154e-06
3.61258e-06
3.61492e-06
3.61615e-06
3.61668e-06
3.61686e-06
3.61691e-06
3.6169e-06
3.61689e-06
3.61688e-06
3.61688e-06
3.61687e-06
3.61687e-06
3.61687e-06
3.61687e-06
3.61687e-06
3.61687e-06
3.61687e-06
3.61687e-06
3.61687e-06
3.61687e-06
3.61687e-06
3.61687e-06
3.61687e-06
3.61687e-06
3.61687e-06
3.61687e-06
3.61687e-06
3.61687e-06
3.61687e-06
3.61687e-06
3.61687e-06
3.61687e-06
3.61687e-06
3.61687e-06
3.61687e-06
3.61687e-06
3.61687e-06
3.61687e-06
3.61687e-06
3.61687e-06
3.61687e-06
3.61687e-06
3.61687e-06
3.61687e-06
3.61687e-06
3.61687e-06
3.61687e-06
3.61687e-06
3.61687e-06
3.61687e-06
3.61687e-06
3.61687e-06
3.61687e-06
3.61687e-06
3.61687e-06
3.61688e-06
3.61688e-06
3.61688e-06
3.61689e-06
3.61685e-06
3.61397e-06
3.6169e-06
3.61822e-06
3.61867e-06
3.61877e-06
3.61875e-06
3.61871e-06
3.61868e-06
3.61865e-06
3.61864e-06
3.61863e-06
3.61863e-06
3.61863e-06
3.61863e-06
3.61863e-06
3.61863e-06
3.61863e-06
3.61863e-06
3.61863e-06
3.61863e-06
3.61863e-06
3.61863e-06
3.61863e-06
3.61863e-06
3.61863e-06
3.61863e-06
3.61863e-06
3.61863e-06
3.61863e-06
3.61863e-06
3.61863e-06
3.61863e-06
3.61863e-06
3.61863e-06
3.61863e-06
3.61863e-06
3.61863e-06
3.61863e-06
3.61863e-06
3.61863e-06
3.61863e-06
3.61863e-06
3.61863e-06
3.61863e-06
3.61863e-06
3.61863e-06
3.61863e-06
3.61863e-06
3.61863e-06
3.61863e-06
3.61863e-06
3.61863e-06
3.61863e-06
3.61863e-06
3.61863e-06
3.61863e-06
3.61863e-06
3.61863e-06
3.61864e-06
3.61859e-06
3.616e-06
3.61958e-06
3.62086e-06
3.62112e-06
3.62107e-06
3.62096e-06
3.62087e-06
3.62081e-06
3.62078e-06
3.62076e-06
3.62075e-06
3.62074e-06
3.62074e-06
3.62074e-06
3.62074e-06
3.62074e-06
3.62074e-06
3.62074e-06
3.62074e-06
3.62074e-06
3.62074e-06
3.62074e-06
3.62074e-06
3.62074e-06
3.62074e-06
3.62074e-06
3.62074e-06
3.62074e-06
3.62074e-06
3.62074e-06
3.62074e-06
3.62074e-06
3.62074e-06
3.62074e-06
3.62074e-06
3.62074e-06
3.62074e-06
3.62074e-06
3.62074e-06
3.62074e-06
3.62074e-06
3.62074e-06
3.62074e-06
3.62074e-06
3.62074e-06
3.62074e-06
3.62074e-06
3.62074e-06
3.62074e-06
3.62074e-06
3.62074e-06
3.62074e-06
3.62074e-06
3.62074e-06
3.62074e-06
3.62074e-06
3.62073e-06
3.62073e-06
3.62073e-06
3.62069e-06
3.61909e-06
3.62322e-06
3.62419e-06
3.62411e-06
3.62383e-06
3.62361e-06
3.62346e-06
3.62337e-06
3.62332e-06
3.6233e-06
3.62328e-06
3.62328e-06
3.62327e-06
3.62327e-06
3.62327e-06
3.62327e-06
3.62327e-06
3.62327e-06
3.62327e-06
3.62327e-06
3.62327e-06
3.62327e-06
3.62327e-06
3.62327e-06
3.62327e-06
3.62327e-06
3.62327e-06
3.62327e-06
3.62327e-06
3.62327e-06
3.62327e-06
3.62327e-06
3.62327e-06
3.62327e-06
3.62327e-06
3.62327e-06
3.62327e-06
3.62327e-06
3.62327e-06
3.62327e-06
3.62327e-06
3.62327e-06
3.62327e-06
3.62327e-06
3.62327e-06
3.62327e-06
3.62327e-06
3.62327e-06
3.62327e-06
3.62327e-06
3.62327e-06
3.62327e-06
3.62327e-06
3.62327e-06
3.62327e-06
3.62326e-06
3.62326e-06
3.62325e-06
3.62325e-06
3.6232e-06
3.62403e-06
3.62817e-06
3.62835e-06
3.62771e-06
3.62714e-06
3.62678e-06
3.62656e-06
3.62645e-06
3.62639e-06
3.62635e-06
3.62634e-06
3.62633e-06
3.62633e-06
3.62632e-06
3.62632e-06
3.62632e-06
3.62632e-06
3.62632e-06
3.62632e-06
3.62632e-06
3.62632e-06
3.62632e-06
3.62632e-06
3.62632e-06
3.62632e-06
3.62632e-06
3.62632e-06
3.62632e-06
3.62632e-06
3.62632e-06
3.62632e-06
3.62632e-06
3.62632e-06
3.62632e-06
3.62632e-06
3.62632e-06
3.62632e-06
3.62632e-06
3.62632e-06
3.62632e-06
3.62632e-06
3.62632e-06
3.62632e-06
3.62632e-06
3.62632e-06
3.62632e-06
3.62632e-06
3.62632e-06
3.62632e-06
3.62632e-06
3.62632e-06
3.62632e-06
3.62632e-06
3.62632e-06
3.62632e-06
3.62631e-06
3.6263e-06
3.62629e-06
3.62628e-06
3.62624e-06
3.63234e-06
3.63486e-06
3.63346e-06
3.632e-06
3.63108e-06
3.63056e-06
3.63029e-06
3.63015e-06
3.63008e-06
3.63004e-06
3.63002e-06
3.63001e-06
3.63001e-06
3.63001e-06
3.63001e-06
3.63e-06
3.63e-06
3.63e-06
3.63e-06
3.63e-06
3.63e-06
3.63e-06
3.63e-06
3.63e-06
3.63e-06
3.63e-06
3.63e-06
3.63e-06
3.63e-06
3.63e-06
3.63e-06
3.63e-06
3.63e-06
3.63e-06
3.63e-06
3.63e-06
3.63e-06
3.63e-06
3.63e-06
3.63e-06
3.63e-06
3.63e-06
3.63e-06
3.63e-06
3.63e-06
3.63e-06
3.63e-06
3.63e-06
3.63e-06
3.63e-06
3.63e-06
3.63e-06
3.63e-06
3.63e-06
3.62999e-06
3.62999e-06
3.62998e-06
3.62997e-06
3.62995e-06
3.62991e-06
3.64891e-06
3.64651e-06
3.64285e-06
3.64053e-06
3.63933e-06
3.63872e-06
3.63842e-06
3.63827e-06
3.63819e-06
3.63815e-06
3.63813e-06
3.63812e-06
3.63812e-06
3.63812e-06
3.63812e-06
3.63812e-06
3.63811e-06
3.63811e-06
3.63811e-06
3.63811e-06
3.63811e-06
3.63811e-06
3.63811e-06
3.63811e-06
3.63811e-06
3.63811e-06
3.63811e-06
3.63811e-06
3.63811e-06
3.63811e-06
3.63811e-06
3.63811e-06
3.63811e-06
3.63811e-06
3.63811e-06
3.63811e-06
3.63811e-06
3.63811e-06
3.63811e-06
3.63811e-06
3.63811e-06
3.63811e-06
3.63811e-06
3.63811e-06
3.63811e-06
3.63811e-06
3.63811e-06
3.63811e-06
3.63811e-06
3.63811e-06
3.63811e-06
3.63811e-06
3.63811e-06
3.63811e-06
3.6381e-06
3.6381e-06
3.63808e-06
3.63807e-06
3.63806e-06
3.63802e-06
6.32825e-06
6.35508e-06
6.35911e-06
6.36028e-06
6.361e-06
6.36152e-06
6.3619e-06
6.36217e-06
6.36237e-06
6.36251e-06
6.36261e-06
6.36268e-06
6.36273e-06
6.36277e-06
6.36279e-06
6.36281e-06
6.36282e-06
6.36283e-06
6.36284e-06
6.36284e-06
6.36285e-06
6.36285e-06
6.36285e-06
6.36285e-06
6.36285e-06
6.36285e-06
6.36285e-06
6.36285e-06
6.36285e-06
6.36285e-06
6.36285e-06
6.36285e-06
6.36285e-06
6.36285e-06
6.36285e-06
6.36285e-06
6.36285e-06
6.36285e-06
6.36285e-06
6.36285e-06
6.36285e-06
6.36285e-06
6.36285e-06
6.36285e-06
6.36285e-06
6.36285e-06
6.36285e-06
6.36285e-06
6.36285e-06
6.36285e-06
6.36285e-06
6.36285e-06
6.36285e-06
6.36284e-06
6.36283e-06
6.36282e-06
6.3628e-06
6.36278e-06
6.36275e-06
6.36271e-06
1.08566e-06
9.73023e-07
9.48137e-07
9.39318e-07
9.35421e-07
9.33467e-07
9.32407e-07
9.318e-07
9.31438e-07
9.31216e-07
9.31076e-07
9.30985e-07
9.30926e-07
9.30886e-07
9.30859e-07
9.30841e-07
9.30828e-07
9.30819e-07
9.30812e-07
9.30808e-07
9.30805e-07
9.30803e-07
9.30801e-07
9.308e-07
9.30799e-07
9.30798e-07
9.30798e-07
9.30797e-07
9.30797e-07
9.30797e-07
9.30797e-07
9.30797e-07
9.30797e-07
9.30797e-07
9.30797e-07
9.30796e-07
9.30796e-07
9.30796e-07
9.30796e-07
9.30796e-07
9.30796e-07
9.30796e-07
9.30796e-07
9.30796e-07
9.30796e-07
9.30796e-07
9.30796e-07
9.30796e-07
9.30796e-07
9.30796e-07
9.30795e-07
9.30794e-07
9.30793e-07
9.3079e-07
9.30787e-07
9.30781e-07
9.30774e-07
9.30765e-07
9.30752e-07
9.4127e-07
)
;

boundaryField
{
    top
    {
        type            calculated;
        value           nonuniform List<scalar> 
60
(
1.02725e-06
9.52617e-07
9.35492e-07
9.29503e-07
9.26967e-07
9.25769e-07
9.25167e-07
9.24853e-07
9.24686e-07
9.24597e-07
9.2455e-07
9.24525e-07
9.24513e-07
9.24507e-07
9.24505e-07
9.24505e-07
9.24506e-07
9.24507e-07
9.24508e-07
9.24509e-07
9.2451e-07
9.24511e-07
9.24512e-07
9.24512e-07
9.24513e-07
9.24513e-07
9.24513e-07
9.24514e-07
9.24514e-07
9.24514e-07
9.24514e-07
9.24514e-07
9.24514e-07
9.24514e-07
9.24514e-07
9.24515e-07
9.24515e-07
9.24515e-07
9.24515e-07
9.24515e-07
9.24515e-07
9.24515e-07
9.24515e-07
9.24515e-07
9.24515e-07
9.24515e-07
9.24515e-07
9.24515e-07
9.24515e-07
9.24514e-07
9.24514e-07
9.24513e-07
9.24512e-07
9.2451e-07
9.24508e-07
9.24505e-07
9.24501e-07
9.24497e-07
9.24491e-07
9.34944e-07
)
;
    }
    inlet
    {
        type            calculated;
        value           uniform 3.6089e-06;
    }
    outlet
    {
        type            calculated;
        value           nonuniform List<scalar> 
30
(
3.60891e-06
3.60892e-06
3.60893e-06
3.60894e-06
3.60896e-06
3.609e-06
3.60904e-06
3.6091e-06
3.60919e-06
3.60931e-06
3.60946e-06
3.60966e-06
3.6099e-06
3.61022e-06
3.6106e-06
3.61108e-06
3.61165e-06
3.61235e-06
3.61319e-06
3.6142e-06
3.6154e-06
3.61685e-06
3.61859e-06
3.62069e-06
3.6232e-06
3.62624e-06
3.62991e-06
3.63802e-06
6.36271e-06
9.4127e-07
)
;
    }
    bottom
    {
        type            symmetryPlane;
    }
    frontAndBack
    {
        type            empty;
    }
}


// ************************************************************************* //
