/*--------------------------------*- C++ -*----------------------------------*\
| =========                 |                                                 |
| \\      /  F ield         | OpenFOAM: The Open Source CFD Toolbox           |
|  \\    /   O peration     | Version:  2412                                  |
|   \\  /    A nd           | Website:  www.openfoam.com                      |
|    \\/     M anipulation  |                                                 |
\*---------------------------------------------------------------------------*/
FoamFile
{
    version     2.0;
    format      ascii;
    arch        "LSB;label=32;scalar=64";
    class       volScalarField;
    location    "0.005";
    object      TTR;
}
// * * * * * * * * * * * * * * * * * * * * * * * * * * * * * * * * * * * * * //

dimensions      [0 0 0 1 0 0 0];

internalField   nonuniform List<scalar> 
1800
(
1001.57
1004.68
1007.69
1010.54
1013.19
1015.59
1017.74
1019.63
1021.27
1022.66
1023.84
1024.82
1025.63
1026.3
1026.84
1027.28
1027.63
1027.91
1028.14
1028.32
1028.46
1028.57
1028.65
1028.72
1028.77
1028.81
1028.85
1028.87
1028.89
1028.91
1028.92
1028.93
1028.93
1028.94
1028.94
1028.95
1028.95
1028.95
1028.95
1028.95
1028.95
1028.95
1028.95
1028.96
1028.96
1028.96
1028.96
1028.96
1028.96
1028.96
1028.96
1028.96
1028.96
1028.96
1028.96
1028.96
1028.96
1028.96
1028.96
1028.96
1001.6
1004.76
1007.81
1010.71
1013.39
1015.82
1018
1019.9
1021.55
1022.96
1024.14
1025.13
1025.95
1026.62
1027.16
1027.6
1027.95
1028.23
1028.46
1028.64
1028.78
1028.89
1028.97
1029.04
1029.09
1029.13
1029.17
1029.19
1029.21
1029.23
1029.24
1029.25
1029.25
1029.26
1029.26
1029.27
1029.27
1029.27
1029.27
1029.27
1029.27
1029.27
1029.27
1029.28
1029.28
1029.28
1029.28
1029.28
1029.28
1029.28
1029.28
1029.28
1029.28
1029.28
1029.28
1029.28
1029.28
1029.28
1029.28
1029.28
1001.65
1004.91
1008.06
1011.03
1013.79
1016.28
1018.5
1020.45
1022.13
1023.55
1024.75
1025.75
1026.58
1027.25
1027.8
1028.24
1028.59
1028.88
1029.1
1029.28
1029.42
1029.53
1029.62
1029.68
1029.74
1029.78
1029.81
1029.83
1029.85
1029.87
1029.88
1029.89
1029.9
1029.9
1029.9
1029.91
1029.91
1029.91
1029.91
1029.91
1029.92
1029.92
1029.92
1029.92
1029.92
1029.92
1029.92
1029.92
1029.92
1029.92
1029.92
1029.92
1029.92
1029.92
1029.92
1029.92
1029.92
1029.92
1029.92
1029.92
1001.72
1005.14
1008.43
1011.53
1014.39
1016.98
1019.28
1021.28
1023
1024.46
1025.68
1026.7
1027.53
1028.21
1028.76
1029.21
1029.56
1029.85
1030.07
1030.25
1030.39
1030.5
1030.59
1030.65
1030.71
1030.75
1030.78
1030.8
1030.82
1030.84
1030.85
1030.86
1030.86
1030.87
1030.87
1030.88
1030.88
1030.88
1030.88
1030.88
1030.88
1030.89
1030.89
1030.89
1030.89
1030.89
1030.89
1030.89
1030.89
1030.89
1030.89
1030.89
1030.89
1030.89
1030.89
1030.89
1030.89
1030.89
1030.89
1030.89
1001.83
1005.45
1008.93
1012.21
1015.22
1017.93
1020.32
1022.4
1024.17
1025.68
1026.93
1027.96
1028.81
1029.5
1030.06
1030.51
1030.87
1031.15
1031.38
1031.56
1031.7
1031.81
1031.89
1031.96
1032.01
1032.05
1032.08
1032.11
1032.13
1032.14
1032.15
1032.16
1032.17
1032.17
1032.18
1032.18
1032.18
1032.19
1032.19
1032.19
1032.19
1032.19
1032.19
1032.19
1032.19
1032.19
1032.19
1032.19
1032.19
1032.19
1032.19
1032.19
1032.19
1032.2
1032.2
1032.2
1032.2
1032.2
1032.2
1032.2
1001.97
1005.85
1009.58
1013.08
1016.27
1019.14
1021.65
1023.82
1025.67
1027.22
1028.51
1029.57
1030.44
1031.14
1031.7
1032.16
1032.52
1032.8
1033.03
1033.21
1033.35
1033.46
1033.54
1033.61
1033.66
1033.7
1033.73
1033.76
1033.78
1033.79
1033.8
1033.81
1033.82
1033.82
1033.83
1033.83
1033.83
1033.84
1033.84
1033.84
1033.84
1033.84
1033.84
1033.84
1033.84
1033.84
1033.84
1033.84
1033.84
1033.84
1033.84
1033.84
1033.84
1033.84
1033.85
1033.85
1033.85
1033.85
1033.85
1033.85
1002.14
1006.35
1010.38
1014.15
1017.57
1020.62
1023.28
1025.57
1027.5
1029.11
1030.44
1031.53
1032.42
1033.13
1033.71
1034.16
1034.53
1034.82
1035.04
1035.22
1035.36
1035.47
1035.55
1035.62
1035.67
1035.71
1035.74
1035.77
1035.79
1035.8
1035.81
1035.82
1035.83
1035.83
1035.84
1035.84
1035.84
1035.84
1035.84
1035.85
1035.85
1035.85
1035.85
1035.85
1035.85
1035.85
1035.85
1035.85
1035.85
1035.85
1035.85
1035.85
1035.85
1035.85
1035.85
1035.85
1035.85
1035.85
1035.85
1035.85
1002.34
1006.95
1011.35
1015.44
1019.14
1022.41
1025.24
1027.65
1029.68
1031.36
1032.74
1033.87
1034.77
1035.5
1036.08
1036.55
1036.91
1037.2
1037.43
1037.61
1037.75
1037.85
1037.94
1038.01
1038.06
1038.1
1038.13
1038.15
1038.17
1038.18
1038.19
1038.2
1038.21
1038.21
1038.22
1038.22
1038.22
1038.22
1038.23
1038.23
1038.23
1038.23
1038.23
1038.23
1038.23
1038.23
1038.23
1038.23
1038.23
1038.23
1038.23
1038.23
1038.23
1038.24
1038.24
1038.24
1038.24
1038.24
1038.24
1038.24
1002.59
1007.67
1012.51
1016.98
1020.99
1024.52
1027.55
1030.11
1032.24
1034
1035.43
1036.59
1037.52
1038.26
1038.85
1039.32
1039.69
1039.98
1040.21
1040.39
1040.52
1040.63
1040.72
1040.78
1040.83
1040.87
1040.9
1040.93
1040.94
1040.96
1040.97
1040.98
1040.98
1040.99
1040.99
1040.99
1041
1041
1041
1041
1041
1041
1041
1041
1041
1041
1041
1041
1041.01
1041.01
1041.01
1041.01
1041.01
1041.01
1041.01
1041.01
1041.01
1041.01
1041.01
1041.01
1002.88
1008.52
1013.88
1018.79
1023.17
1026.98
1030.23
1032.95
1035.21
1037.04
1038.53
1039.73
1040.68
1041.44
1042.04
1042.51
1042.88
1043.17
1043.4
1043.58
1043.72
1043.82
1043.91
1043.97
1044.02
1044.06
1044.09
1044.11
1044.13
1044.14
1044.15
1044.16
1044.17
1044.17
1044.18
1044.18
1044.18
1044.18
1044.19
1044.19
1044.19
1044.19
1044.19
1044.19
1044.19
1044.19
1044.19
1044.19
1044.19
1044.19
1044.19
1044.19
1044.19
1044.2
1044.2
1044.2
1044.2
1044.2
1044.2
1044.2
1003.22
1009.53
1015.48
1020.9
1025.69
1029.83
1033.33
1036.23
1038.6
1040.53
1042.07
1043.31
1044.29
1045.06
1045.67
1046.14
1046.52
1046.81
1047.03
1047.21
1047.35
1047.45
1047.53
1047.6
1047.65
1047.69
1047.71
1047.74
1047.75
1047.77
1047.78
1047.79
1047.79
1047.8
1047.8
1047.8
1047.81
1047.81
1047.81
1047.81
1047.81
1047.81
1047.81
1047.81
1047.81
1047.81
1047.81
1047.81
1047.81
1047.81
1047.82
1047.82
1047.82
1047.82
1047.82
1047.82
1047.82
1047.82
1047.82
1047.82
1003.62
1010.7
1017.34
1023.35
1028.61
1033.11
1036.87
1039.96
1042.47
1044.48
1046.09
1047.36
1048.36
1049.15
1049.76
1050.24
1050.61
1050.9
1051.13
1051.3
1051.44
1051.54
1051.63
1051.69
1051.74
1051.77
1051.8
1051.82
1051.84
1051.85
1051.86
1051.87
1051.88
1051.88
1051.89
1051.89
1051.89
1051.89
1051.89
1051.89
1051.9
1051.9
1051.9
1051.9
1051.9
1051.9
1051.9
1051.9
1051.9
1051.9
1051.9
1051.9
1051.9
1051.91
1051.91
1051.91
1051.91
1051.91
1051.91
1051.91
1004.09
1012.08
1019.52
1026.19
1031.97
1036.86
1040.91
1044.2
1046.84
1048.95
1050.61
1051.92
1052.94
1053.73
1054.35
1054.84
1055.21
1055.5
1055.72
1055.89
1056.03
1056.13
1056.21
1056.27
1056.32
1056.35
1056.38
1056.4
1056.42
1056.43
1056.44
1056.45
1056.46
1056.46
1056.46
1056.47
1056.47
1056.47
1056.47
1056.47
1056.47
1056.47
1056.47
1056.47
1056.47
1056.48
1056.48
1056.48
1056.48
1056.48
1056.48
1056.48
1056.48
1056.48
1056.49
1056.49
1056.49
1056.49
1056.49
1056.49
1004.65
1013.68
1022.04
1029.46
1035.83
1041.15
1045.49
1048.99
1051.77
1053.96
1055.67
1057.01
1058.05
1058.86
1059.48
1059.96
1060.33
1060.62
1060.84
1061.01
1061.14
1061.24
1061.32
1061.38
1061.43
1061.46
1061.49
1061.51
1061.53
1061.54
1061.55
1061.55
1061.56
1061.56
1061.57
1061.57
1061.57
1061.57
1061.57
1061.58
1061.58
1061.58
1061.58
1061.58
1061.58
1061.58
1061.58
1061.58
1061.58
1061.58
1061.58
1061.58
1061.59
1061.59
1061.59
1061.59
1061.6
1061.6
1061.6
1061.59
1005.3
1015.57
1024.98
1033.25
1040.25
1046.02
1050.68
1054.38
1057.29
1059.56
1061.33
1062.69
1063.74
1064.55
1065.18
1065.66
1066.03
1066.31
1066.53
1066.69
1066.82
1066.92
1066.99
1067.05
1067.1
1067.13
1067.16
1067.18
1067.19
1067.2
1067.21
1067.22
1067.23
1067.23
1067.23
1067.24
1067.24
1067.24
1067.24
1067.24
1067.24
1067.24
1067.24
1067.24
1067.24
1067.24
1067.24
1067.25
1067.25
1067.25
1067.25
1067.25
1067.25
1067.25
1067.26
1067.26
1067.26
1067.27
1067.27
1067.26
1006.07
1017.78
1028.4
1037.61
1045.3
1051.55
1056.52
1060.43
1063.46
1065.81
1067.61
1069
1070.06
1070.87
1071.49
1071.96
1072.33
1072.6
1072.82
1072.98
1073.1
1073.2
1073.27
1073.33
1073.37
1073.4
1073.43
1073.45
1073.46
1073.48
1073.48
1073.49
1073.5
1073.5
1073.5
1073.5
1073.51
1073.51
1073.51
1073.51
1073.51
1073.51
1073.51
1073.51
1073.51
1073.51
1073.51
1073.51
1073.51
1073.52
1073.52
1073.52
1073.52
1073.52
1073.53
1073.53
1073.54
1073.54
1073.54
1073.54
1006.98
1020.38
1032.4
1042.66
1051.09
1057.82
1063.11
1067.2
1070.34
1072.75
1074.58
1075.98
1077.04
1077.84
1078.46
1078.93
1079.28
1079.55
1079.76
1079.92
1080.04
1080.13
1080.2
1080.25
1080.3
1080.33
1080.35
1080.37
1080.38
1080.39
1080.4
1080.41
1080.41
1080.42
1080.42
1080.42
1080.42
1080.43
1080.43
1080.43
1080.43
1080.43
1080.43
1080.43
1080.43
1080.43
1080.43
1080.43
1080.43
1080.43
1080.43
1080.44
1080.44
1080.44
1080.45
1080.45
1080.46
1080.46
1080.47
1080.47
1008.08
1023.48
1037.09
1048.5
1057.7
1064.93
1070.51
1074.77
1078
1080.45
1082.3
1083.69
1084.75
1085.54
1086.14
1086.6
1086.95
1087.21
1087.41
1087.56
1087.68
1087.76
1087.83
1087.88
1087.92
1087.95
1087.97
1087.99
1088.01
1088.02
1088.02
1088.03
1088.03
1088.04
1088.04
1088.04
1088.04
1088.05
1088.05
1088.05
1088.05
1088.05
1088.05
1088.05
1088.05
1088.05
1088.05
1088.05
1088.05
1088.05
1088.05
1088.06
1088.06
1088.06
1088.07
1088.08
1088.08
1088.09
1088.1
1088.1
1009.41
1027.17
1042.61
1055.28
1065.28
1072.98
1078.83
1083.22
1086.51
1088.98
1090.82
1092.21
1093.24
1094.02
1094.61
1095.05
1095.38
1095.63
1095.82
1095.97
1096.08
1096.16
1096.23
1096.28
1096.31
1096.34
1096.36
1096.38
1096.39
1096.4
1096.41
1096.41
1096.42
1096.42
1096.42
1096.43
1096.43
1096.43
1096.43
1096.43
1096.43
1096.43
1096.43
1096.43
1096.43
1096.43
1096.43
1096.43
1096.43
1096.44
1096.44
1096.44
1096.44
1096.45
1096.46
1096.46
1096.48
1096.49
1096.5
1096.51
1011.03
1031.64
1049.16
1063.18
1073.97
1082.11
1088.16
1092.65
1095.97
1098.42
1100.24
1101.59
1102.6
1103.35
1103.92
1104.34
1104.66
1104.9
1105.08
1105.22
1105.32
1105.4
1105.46
1105.51
1105.54
1105.57
1105.59
1105.6
1105.61
1105.62
1105.63
1105.63
1105.64
1105.64
1105.64
1105.65
1105.65
1105.65
1105.65
1105.65
1105.65
1105.65
1105.65
1105.65
1105.65
1105.65
1105.65
1105.65
1105.65
1105.65
1105.66
1105.66
1105.66
1105.67
1105.68
1105.69
1105.7
1105.72
1105.74
1105.76
1013.06
1037.09
1056.97
1072.4
1083.96
1092.45
1098.65
1103.16
1106.45
1108.86
1110.63
1111.94
1112.91
1113.63
1114.16
1114.56
1114.86
1115.09
1115.26
1115.39
1115.48
1115.56
1115.61
1115.65
1115.69
1115.71
1115.73
1115.74
1115.75
1115.76
1115.77
1115.77
1115.78
1115.78
1115.78
1115.78
1115.78
1115.78
1115.79
1115.79
1115.79
1115.79
1115.79
1115.79
1115.79
1115.79
1115.79
1115.79
1115.79
1115.79
1115.79
1115.8
1115.8
1115.81
1115.82
1115.83
1115.85
1115.87
1115.91
1115.94
1015.63
1043.84
1066.36
1083.21
1095.43
1104.16
1110.4
1114.86
1118.07
1120.4
1122.1
1123.34
1124.25
1124.93
1125.43
1125.8
1126.08
1126.29
1126.44
1126.56
1126.65
1126.72
1126.77
1126.81
1126.84
1126.86
1126.87
1126.89
1126.9
1126.9
1126.91
1126.91
1126.92
1126.92
1126.92
1126.92
1126.93
1126.93
1126.93
1126.93
1126.93
1126.93
1126.93
1126.93
1126.93
1126.93
1126.93
1126.93
1126.93
1126.93
1126.93
1126.94
1126.94
1126.95
1126.96
1126.97
1127
1127.03
1127.08
1127.12
1018.99
1052.28
1077.69
1095.88
1108.57
1117.38
1123.53
1127.85
1130.92
1133.12
1134.71
1135.86
1136.71
1137.33
1137.79
1138.13
1138.38
1138.57
1138.71
1138.82
1138.9
1138.96
1139.01
1139.04
1139.07
1139.09
1139.1
1139.11
1139.12
1139.13
1139.13
1139.14
1139.14
1139.14
1139.14
1139.15
1139.15
1139.15
1139.15
1139.15
1139.15
1139.15
1139.15
1139.15
1139.15
1139.15
1139.15
1139.15
1139.15
1139.15
1139.16
1139.16
1139.16
1139.17
1139.18
1139.2
1139.23
1139.27
1139.33
1139.39
1023.51
1062.98
1091.39
1110.67
1123.55
1132.21
1138.1
1142.18
1145.03
1147.06
1148.51
1149.56
1150.32
1150.88
1151.29
1151.59
1151.82
1151.99
1152.11
1152.21
1152.28
1152.33
1152.37
1152.4
1152.42
1152.44
1152.45
1152.46
1152.47
1152.48
1152.48
1152.49
1152.49
1152.49
1152.49
1152.49
1152.49
1152.49
1152.49
1152.49
1152.5
1152.5
1152.5
1152.5
1152.5
1152.5
1152.5
1152.5
1152.5
1152.5
1152.5
1152.5
1152.51
1152.52
1152.53
1152.55
1152.58
1152.63
1152.7
1152.77
1029.81
1076.69
1107.92
1127.8
1140.46
1148.67
1154.13
1157.84
1160.4
1162.2
1163.48
1164.4
1165.07
1165.56
1165.91
1166.18
1166.37
1166.52
1166.62
1166.7
1166.76
1166.81
1166.84
1166.87
1166.89
1166.9
1166.92
1166.92
1166.93
1166.94
1166.94
1166.94
1166.94
1166.95
1166.95
1166.95
1166.95
1166.95
1166.95
1166.95
1166.95
1166.95
1166.95
1166.95
1166.95
1166.95
1166.95
1166.95
1166.95
1166.95
1166.96
1166.96
1166.96
1166.97
1166.98
1167
1167.04
1167.09
1167.17
1167.24
1039.05
1094.41
1127.73
1147.38
1159.24
1166.68
1171.49
1174.71
1176.91
1178.45
1179.53
1180.3
1180.86
1181.27
1181.57
1181.78
1181.95
1182.07
1182.15
1182.22
1182.27
1182.31
1182.34
1182.36
1182.37
1182.39
1182.4
1182.4
1182.41
1182.41
1182.42
1182.42
1182.42
1182.42
1182.42
1182.42
1182.42
1182.42
1182.42
1182.42
1182.42
1182.42
1182.42
1182.42
1182.43
1182.43
1182.43
1182.43
1182.43
1182.43
1182.43
1182.43
1182.44
1182.44
1182.45
1182.47
1182.5
1182.56
1182.63
1182.69
1053.35
1117.44
1151.17
1169.35
1179.73
1186.01
1189.98
1192.6
1194.38
1195.6
1196.46
1197.08
1197.52
1197.84
1198.07
1198.24
1198.37
1198.46
1198.53
1198.58
1198.62
1198.65
1198.67
1198.69
1198.7
1198.71
1198.72
1198.72
1198.73
1198.73
1198.73
1198.73
1198.74
1198.74
1198.74
1198.74
1198.74
1198.74
1198.74
1198.74
1198.74
1198.74
1198.74
1198.74
1198.74
1198.74
1198.74
1198.74
1198.74
1198.74
1198.74
1198.75
1198.75
1198.75
1198.76
1198.78
1198.81
1198.85
1198.91
1198.96
1076.89
1147.35
1178.36
1193.44
1201.57
1206.33
1209.29
1211.22
1212.51
1213.4
1214.02
1214.46
1214.78
1215.01
1215.17
1215.29
1215.38
1215.45
1215.5
1215.54
1215.57
1215.59
1215.6
1215.61
1215.62
1215.63
1215.63
1215.64
1215.64
1215.64
1215.64
1215.65
1215.65
1215.65
1215.65
1215.65
1215.65
1215.65
1215.65
1215.65
1215.65
1215.65
1215.65
1215.65
1215.65
1215.65
1215.65
1215.65
1215.65
1215.65
1215.65
1215.65
1215.66
1215.66
1215.67
1215.68
1215.7
1215.73
1215.78
1215.82
1117.69
1185.56
1208.95
1219.08
1224.26
1227.21
1229.02
1230.18
1230.96
1231.49
1231.87
1232.13
1232.32
1232.45
1232.55
1232.63
1232.68
1232.72
1232.75
1232.77
1232.79
1232.8
1232.81
1232.82
1232.82
1232.83
1232.83
1232.83
1232.83
1232.83
1232.83
1232.84
1232.84
1232.84
1232.84
1232.84
1232.84
1232.84
1232.84
1232.84
1232.84
1232.84
1232.84
1232.84
1232.84
1232.84
1232.84
1232.84
1232.84
1232.84
1232.84
1232.84
1232.84
1232.84
1232.85
1232.86
1232.87
1232.89
1232.91
1232.94
1190.53
1232.06
1241.72
1245.37
1247.16
1248.16
1248.77
1249.16
1249.42
1249.6
1249.73
1249.81
1249.88
1249.92
1249.96
1249.98
1250
1250.01
1250.02
1250.03
1250.03
1250.04
1250.04
1250.04
1250.04
1250.05
1250.05
1250.05
1250.05
1250.05
1250.05
1250.05
1250.05
1250.05
1250.05
1250.05
1250.05
1250.05
1250.05
1250.05
1250.05
1250.05
1250.05
1250.05
1250.05
1250.05
1250.05
1250.05
1250.05
1250.05
1250.05
1250.05
1250.05
1250.05
1250.05
1250.06
1250.06
1250.07
1250.07
1250.08
)
;

boundaryField
{
    top
    {
        type            fixedValue;
        value           uniform 1258.53;
    }
    inlet
    {
        type            fixedValue;
        value           uniform 1000;
    }
    outlet
    {
        type            zeroGradient;
    }
    bottom
    {
        type            symmetryPlane;
    }
    frontAndBack
    {
        type            empty;
    }
}


// ************************************************************************* //
