/*--------------------------------*- C++ -*----------------------------------*\
| =========                 |                                                 |
| \\      /  F ield         | OpenFOAM: The Open Source CFD Toolbox           |
|  \\    /   O peration     | Version:  2412                                  |
|   \\  /    A nd           | Website:  www.openfoam.com                      |
|    \\/     M anipulation  |                                                 |
\*---------------------------------------------------------------------------*/
FoamFile
{
    version     2.0;
    format      ascii;
    arch        "LSB;label=32;scalar=64";
    class       volScalarField;
    location    "0.005";
    object      TTR;
}
// * * * * * * * * * * * * * * * * * * * * * * * * * * * * * * * * * * * * * //

dimensions      [0 0 0 1 0 0 0];

internalField   nonuniform List<scalar> 
1800
(
1003.63
1010.82
1017.85
1024.62
1031.05
1037.08
1042.66
1047.75
1052.35
1056.46
1060.1
1063.3
1066.09
1068.52
1070.61
1072.41
1073.95
1075.26
1076.38
1077.33
1078.13
1078.8
1079.37
1079.85
1080.25
1080.59
1080.87
1081.11
1081.31
1081.47
1081.61
1081.73
1081.82
1081.9
1081.97
1082.02
1082.07
1082.11
1082.14
1082.16
1082.19
1082.2
1082.22
1082.23
1082.24
1082.25
1082.26
1082.27
1082.28
1082.28
1082.29
1082.29
1082.3
1082.3
1082.3
1082.31
1082.31
1082.31
1082.31
1082.31
1003.66
1010.91
1017.98
1024.8
1031.27
1037.33
1042.94
1048.05
1052.66
1056.78
1060.43
1063.64
1066.43
1068.86
1070.95
1072.75
1074.29
1075.6
1076.72
1077.66
1078.46
1079.14
1079.7
1080.18
1080.58
1080.92
1081.2
1081.44
1081.64
1081.8
1081.94
1082.05
1082.15
1082.23
1082.29
1082.35
1082.39
1082.43
1082.46
1082.49
1082.51
1082.53
1082.55
1082.56
1082.57
1082.58
1082.59
1082.6
1082.6
1082.61
1082.61
1082.62
1082.62
1082.63
1082.63
1082.63
1082.64
1082.64
1082.64
1082.64
1003.71
1011.07
1018.25
1025.16
1031.71
1037.84
1043.49
1048.65
1053.29
1057.43
1061.1
1064.31
1067.11
1069.54
1071.63
1073.43
1074.97
1076.28
1077.39
1078.33
1079.13
1079.8
1080.37
1080.85
1081.25
1081.58
1081.86
1082.1
1082.29
1082.46
1082.59
1082.71
1082.8
1082.88
1082.95
1083
1083.05
1083.09
1083.12
1083.14
1083.17
1083.18
1083.2
1083.21
1083.22
1083.23
1083.24
1083.25
1083.25
1083.26
1083.27
1083.27
1083.28
1083.28
1083.28
1083.29
1083.29
1083.29
1083.29
1083.29
1003.8
1011.32
1018.65
1025.7
1032.37
1038.6
1044.34
1049.55
1054.24
1058.41
1062.1
1065.33
1068.13
1070.57
1072.66
1074.45
1075.99
1077.3
1078.4
1079.34
1080.14
1080.81
1081.37
1081.84
1082.24
1082.58
1082.85
1083.09
1083.28
1083.45
1083.58
1083.69
1083.79
1083.87
1083.93
1083.99
1084.03
1084.07
1084.1
1084.13
1084.15
1084.17
1084.18
1084.19
1084.21
1084.22
1084.22
1084.23
1084.24
1084.24
1084.25
1084.25
1084.26
1084.26
1084.27
1084.27
1084.27
1084.28
1084.28
1084.28
1003.91
1011.66
1019.2
1026.43
1033.27
1039.63
1045.47
1050.77
1055.52
1059.73
1063.44
1066.69
1069.51
1071.94
1074.03
1075.83
1077.36
1078.66
1079.76
1080.69
1081.48
1082.15
1082.71
1083.18
1083.57
1083.9
1084.18
1084.41
1084.61
1084.77
1084.9
1085.01
1085.11
1085.18
1085.25
1085.3
1085.35
1085.38
1085.42
1085.44
1085.46
1085.48
1085.5
1085.51
1085.52
1085.53
1085.54
1085.54
1085.55
1085.56
1085.56
1085.57
1085.57
1085.58
1085.58
1085.58
1085.59
1085.59
1085.59
1085.59
1004.06
1012.09
1019.9
1027.37
1034.4
1040.94
1046.91
1052.31
1057.13
1061.39
1065.14
1068.4
1071.23
1073.67
1075.76
1077.55
1079.07
1080.37
1081.46
1082.39
1083.17
1083.83
1084.39
1084.85
1085.25
1085.57
1085.85
1086.07
1086.27
1086.43
1086.56
1086.67
1086.76
1086.84
1086.9
1086.96
1087
1087.04
1087.07
1087.09
1087.11
1087.13
1087.15
1087.16
1087.17
1087.18
1087.19
1087.19
1087.2
1087.21
1087.21
1087.22
1087.22
1087.23
1087.23
1087.23
1087.24
1087.24
1087.24
1087.24
1004.24
1012.62
1020.75
1028.51
1035.8
1042.53
1048.66
1054.18
1059.08
1063.41
1067.19
1070.48
1073.31
1075.75
1077.84
1079.63
1081.14
1082.43
1083.52
1084.44
1085.22
1085.87
1086.42
1086.88
1087.26
1087.59
1087.86
1088.08
1088.27
1088.43
1088.56
1088.67
1088.76
1088.83
1088.9
1088.95
1088.99
1089.03
1089.06
1089.08
1089.11
1089.12
1089.14
1089.15
1089.16
1089.17
1089.18
1089.18
1089.19
1089.2
1089.2
1089.21
1089.21
1089.22
1089.22
1089.23
1089.23
1089.23
1089.23
1089.24
1004.46
1013.26
1021.78
1029.88
1037.46
1044.43
1050.74
1056.39
1061.4
1065.79
1069.61
1072.92
1075.77
1078.21
1080.3
1082.07
1083.58
1084.86
1085.93
1086.84
1087.61
1088.26
1088.8
1089.25
1089.63
1089.95
1090.22
1090.44
1090.62
1090.78
1090.91
1091.01
1091.1
1091.18
1091.24
1091.29
1091.33
1091.37
1091.4
1091.42
1091.44
1091.46
1091.48
1091.49
1091.5
1091.51
1091.51
1091.52
1091.53
1091.53
1091.54
1091.54
1091.55
1091.56
1091.56
1091.57
1091.57
1091.57
1091.57
1091.57
1004.72
1014.02
1022.99
1031.5
1039.41
1046.65
1053.17
1058.98
1064.09
1068.55
1072.41
1075.74
1078.6
1081.04
1083.12
1084.89
1086.39
1087.65
1088.72
1089.62
1090.37
1091.01
1091.54
1091.99
1092.36
1092.67
1092.93
1093.15
1093.33
1093.48
1093.61
1093.72
1093.8
1093.88
1093.94
1093.99
1094.03
1094.06
1094.09
1094.12
1094.14
1094.15
1094.17
1094.18
1094.19
1094.2
1094.21
1094.21
1094.22
1094.23
1094.23
1094.24
1094.24
1094.25
1094.25
1094.26
1094.26
1094.27
1094.27
1094.27
1005.02
1014.9
1024.41
1033.38
1041.68
1049.22
1055.97
1061.94
1067.17
1071.7
1075.61
1078.97
1081.83
1084.27
1086.34
1088.09
1089.57
1090.82
1091.88
1092.76
1093.5
1094.13
1094.65
1095.09
1095.46
1095.76
1096.02
1096.23
1096.41
1096.56
1096.68
1096.78
1096.87
1096.94
1097
1097.05
1097.09
1097.12
1097.15
1097.18
1097.19
1097.21
1097.23
1097.24
1097.25
1097.26
1097.26
1097.27
1097.28
1097.28
1097.29
1097.29
1097.3
1097.31
1097.31
1097.32
1097.32
1097.33
1097.33
1097.33
1005.38
1015.93
1026.05
1035.55
1044.29
1052.17
1059.17
1065.32
1070.67
1075.27
1079.23
1082.6
1085.47
1087.9
1089.95
1091.69
1093.15
1094.39
1095.42
1096.29
1097.02
1097.63
1098.14
1098.57
1098.93
1099.23
1099.48
1099.69
1099.86
1100.01
1100.13
1100.23
1100.31
1100.38
1100.44
1100.48
1100.52
1100.56
1100.59
1100.61
1100.63
1100.64
1100.66
1100.67
1100.68
1100.69
1100.69
1100.7
1100.71
1100.71
1100.72
1100.72
1100.73
1100.74
1100.74
1100.75
1100.76
1100.76
1100.76
1100.76
1005.79
1017.13
1027.96
1038.06
1047.27
1055.53
1062.8
1069.14
1074.61
1079.29
1083.27
1086.66
1089.53
1091.94
1093.98
1095.7
1097.14
1098.35
1099.37
1100.22
1100.94
1101.53
1102.03
1102.45
1102.8
1103.09
1103.33
1103.54
1103.7
1103.84
1103.96
1104.06
1104.14
1104.21
1104.26
1104.31
1104.35
1104.38
1104.41
1104.43
1104.45
1104.46
1104.48
1104.49
1104.5
1104.5
1104.51
1104.52
1104.52
1104.53
1104.54
1104.54
1104.55
1104.55
1104.56
1104.57
1104.58
1104.58
1104.59
1104.59
1006.26
1018.52
1030.15
1040.93
1050.68
1059.34
1066.9
1073.43
1079.01
1083.76
1087.78
1091.17
1094.03
1096.43
1098.45
1100.14
1101.55
1102.74
1103.74
1104.57
1105.26
1105.84
1106.33
1106.74
1107.07
1107.36
1107.59
1107.79
1107.95
1108.09
1108.2
1108.29
1108.37
1108.44
1108.49
1108.54
1108.57
1108.6
1108.63
1108.65
1108.67
1108.68
1108.7
1108.71
1108.72
1108.72
1108.73
1108.74
1108.74
1108.75
1108.76
1108.76
1108.77
1108.78
1108.78
1108.79
1108.8
1108.81
1108.81
1108.81
1006.82
1020.13
1032.68
1044.22
1054.57
1063.66
1071.51
1078.23
1083.93
1088.73
1092.77
1096.16
1099
1101.38
1103.36
1105.02
1106.41
1107.57
1108.54
1109.35
1110.02
1110.58
1111.05
1111.45
1111.77
1112.05
1112.27
1112.46
1112.62
1112.75
1112.86
1112.95
1113.02
1113.09
1113.14
1113.18
1113.22
1113.25
1113.27
1113.29
1113.31
1113.33
1113.34
1113.35
1113.36
1113.36
1113.37
1113.38
1113.38
1113.39
1113.4
1113.4
1113.41
1113.42
1113.43
1113.43
1113.44
1113.45
1113.46
1113.46
1007.47
1022
1035.61
1048
1058.99
1068.53
1076.69
1083.59
1089.39
1094.24
1098.28
1101.66
1104.46
1106.8
1108.75
1110.37
1111.73
1112.85
1113.79
1114.58
1115.23
1115.77
1116.23
1116.6
1116.92
1117.18
1117.4
1117.58
1117.73
1117.86
1117.96
1118.05
1118.12
1118.18
1118.23
1118.27
1118.3
1118.33
1118.36
1118.38
1118.39
1118.41
1118.42
1118.43
1118.44
1118.44
1118.45
1118.46
1118.46
1118.47
1118.48
1118.48
1118.49
1118.5
1118.51
1118.52
1118.53
1118.54
1118.55
1118.55
1008.24
1024.19
1039.01
1052.34
1064.02
1074.03
1082.48
1089.55
1095.43
1100.31
1104.34
1107.68
1110.45
1112.74
1114.65
1116.22
1117.54
1118.63
1119.53
1120.29
1120.91
1121.44
1121.87
1122.23
1122.53
1122.78
1122.99
1123.17
1123.31
1123.43
1123.53
1123.61
1123.68
1123.74
1123.79
1123.82
1123.86
1123.88
1123.91
1123.93
1123.94
1123.95
1123.97
1123.97
1123.98
1123.99
1124
1124
1124.01
1124.01
1124.02
1124.03
1124.03
1124.04
1124.05
1124.07
1124.08
1124.09
1124.11
1124.11
1009.15
1026.77
1042.97
1057.35
1069.76
1080.24
1088.97
1096.18
1102.11
1106.99
1110.99
1114.28
1116.99
1119.23
1121.08
1122.6
1123.87
1124.91
1125.78
1126.5
1127.1
1127.6
1128.02
1128.36
1128.65
1128.89
1129.08
1129.25
1129.39
1129.5
1129.59
1129.67
1129.74
1129.79
1129.84
1129.87
1129.9
1129.93
1129.95
1129.97
1129.98
1130
1130.01
1130.02
1130.02
1130.03
1130.04
1130.04
1130.05
1130.05
1130.06
1130.07
1130.07
1130.08
1130.09
1130.11
1130.13
1130.14
1130.16
1130.17
1010.23
1029.83
1047.62
1063.15
1076.32
1087.26
1096.23
1103.54
1109.5
1114.34
1118.28
1121.5
1124.14
1126.3
1128.08
1129.54
1130.75
1131.75
1132.58
1133.27
1133.84
1134.31
1134.7
1135.03
1135.3
1135.52
1135.71
1135.86
1135.99
1136.1
1136.19
1136.26
1136.32
1136.37
1136.42
1136.45
1136.48
1136.5
1136.52
1136.54
1136.55
1136.57
1136.58
1136.58
1136.59
1136.6
1136.6
1136.61
1136.61
1136.62
1136.63
1136.63
1136.64
1136.65
1136.66
1136.68
1136.7
1136.72
1136.75
1136.76
1011.56
1033.51
1053.12
1069.9
1083.84
1095.19
1104.36
1111.72
1117.64
1122.41
1126.26
1129.38
1131.92
1134
1135.7
1137.09
1138.24
1139.18
1139.97
1140.61
1141.15
1141.59
1141.96
1142.27
1142.52
1142.73
1142.9
1143.05
1143.17
1143.27
1143.35
1143.42
1143.48
1143.53
1143.57
1143.6
1143.63
1143.65
1143.67
1143.68
1143.69
1143.71
1143.71
1143.72
1143.73
1143.74
1143.74
1143.75
1143.75
1143.76
1143.76
1143.77
1143.78
1143.79
1143.8
1143.82
1143.84
1143.87
1143.91
1143.93
1013.19
1038
1059.69
1077.8
1092.48
1104.19
1113.46
1120.8
1126.63
1131.27
1134.99
1137.99
1140.41
1142.38
1143.98
1145.3
1146.37
1147.26
1147.99
1148.59
1149.09
1149.51
1149.85
1150.13
1150.37
1150.56
1150.72
1150.86
1150.97
1151.06
1151.14
1151.2
1151.25
1151.3
1151.33
1151.36
1151.39
1151.41
1151.43
1151.44
1151.45
1151.46
1151.47
1151.48
1151.49
1151.49
1151.5
1151.5
1151.51
1151.51
1151.52
1151.52
1151.53
1151.54
1151.56
1151.58
1151.6
1151.64
1151.69
1151.73
1015.24
1043.53
1067.6
1087.09
1102.44
1114.38
1123.65
1130.87
1136.52
1140.98
1144.53
1147.36
1149.64
1151.48
1152.98
1154.2
1155.2
1156.02
1156.7
1157.25
1157.71
1158.09
1158.41
1158.67
1158.88
1159.06
1159.21
1159.33
1159.43
1159.52
1159.59
1159.65
1159.69
1159.73
1159.77
1159.79
1159.82
1159.84
1159.85
1159.87
1159.88
1159.89
1159.89
1159.9
1159.91
1159.91
1159.92
1159.92
1159.92
1159.93
1159.93
1159.94
1159.95
1159.96
1159.98
1160
1160.03
1160.07
1160.13
1160.2
1017.85
1050.4
1077.15
1097.98
1113.84
1125.85
1134.96
1141.95
1147.35
1151.56
1154.88
1157.52
1159.63
1161.33
1162.7
1163.82
1164.73
1165.48
1166.1
1166.6
1167.02
1167.36
1167.64
1167.88
1168.07
1168.23
1168.37
1168.48
1168.57
1168.65
1168.71
1168.76
1168.81
1168.84
1168.87
1168.9
1168.92
1168.93
1168.95
1168.96
1168.97
1168.98
1168.99
1168.99
1169
1169
1169.01
1169.01
1169.01
1169.02
1169.02
1169.03
1169.04
1169.05
1169.06
1169.09
1169.12
1169.17
1169.24
1169.32
1021.19
1058.91
1088.55
1110.59
1126.72
1138.56
1147.36
1153.97
1159.02
1162.92
1165.97
1168.38
1170.3
1171.83
1173.07
1174.07
1174.89
1175.56
1176.11
1176.56
1176.93
1177.24
1177.49
1177.7
1177.87
1178.01
1178.13
1178.23
1178.31
1178.38
1178.44
1178.48
1178.52
1178.55
1178.58
1178.6
1178.62
1178.63
1178.65
1178.66
1178.67
1178.67
1178.68
1178.68
1178.69
1178.69
1178.7
1178.7
1178.7
1178.71
1178.71
1178.72
1178.73
1178.74
1178.75
1178.77
1178.81
1178.86
1178.94
1179
1025.55
1069.43
1101.99
1124.91
1140.98
1152.39
1160.65
1166.77
1171.37
1174.9
1177.63
1179.78
1181.48
1182.83
1183.93
1184.81
1185.53
1186.11
1186.59
1186.99
1187.31
1187.58
1187.8
1187.98
1188.13
1188.25
1188.36
1188.44
1188.51
1188.57
1188.62
1188.66
1188.69
1188.72
1188.74
1188.76
1188.78
1188.79
1188.8
1188.81
1188.82
1188.82
1188.83
1188.83
1188.84
1188.84
1188.85
1188.85
1188.85
1188.86
1188.86
1188.87
1188.87
1188.88
1188.9
1188.92
1188.95
1189
1189.06
1189.11
1031.52
1082.56
1117.71
1140.95
1156.47
1167.12
1174.66
1180.13
1184.21
1187.3
1189.68
1191.53
1193
1194.17
1195.1
1195.86
1196.47
1196.97
1197.38
1197.71
1197.99
1198.21
1198.4
1198.56
1198.68
1198.79
1198.88
1198.95
1199.01
1199.06
1199.1
1199.13
1199.16
1199.18
1199.2
1199.22
1199.23
1199.24
1199.25
1199.26
1199.27
1199.27
1199.28
1199.28
1199.29
1199.29
1199.29
1199.29
1199.3
1199.3
1199.3
1199.31
1199.31
1199.32
1199.34
1199.36
1199.38
1199.42
1199.47
1199.49
1040.2
1099.24
1136.1
1158.74
1173.11
1182.63
1189.21
1193.91
1197.37
1199.98
1201.97
1203.52
1204.74
1205.7
1206.48
1207.1
1207.6
1208.01
1208.35
1208.63
1208.85
1209.04
1209.19
1209.32
1209.42
1209.51
1209.58
1209.64
1209.69
1209.73
1209.76
1209.79
1209.81
1209.83
1209.85
1209.86
1209.87
1209.88
1209.89
1209.89
1209.9
1209.9
1209.91
1209.91
1209.91
1209.92
1209.92
1209.92
1209.92
1209.93
1209.93
1209.93
1209.94
1209.95
1209.96
1209.97
1210
1210.02
1210.05
1210.06
1053.69
1120.82
1157.6
1178.35
1190.82
1198.81
1204.21
1208.01
1210.78
1212.85
1214.43
1215.65
1216.61
1217.37
1217.98
1218.46
1218.86
1219.18
1219.44
1219.65
1219.83
1219.97
1220.09
1220.19
1220.27
1220.34
1220.4
1220.44
1220.48
1220.51
1220.54
1220.56
1220.58
1220.59
1220.6
1220.61
1220.62
1220.63
1220.64
1220.64
1220.64
1220.65
1220.65
1220.65
1220.66
1220.66
1220.66
1220.66
1220.66
1220.67
1220.67
1220.67
1220.68
1220.68
1220.69
1220.7
1220.72
1220.74
1220.75
1220.76
1075.93
1148.97
1182.56
1199.7
1209.46
1215.52
1219.54
1222.34
1224.36
1225.86
1227
1227.88
1228.57
1229.12
1229.55
1229.9
1230.18
1230.41
1230.6
1230.75
1230.87
1230.98
1231.06
1231.13
1231.19
1231.24
1231.28
1231.31
1231.34
1231.36
1231.38
1231.39
1231.41
1231.42
1231.43
1231.43
1231.44
1231.45
1231.45
1231.45
1231.46
1231.46
1231.46
1231.46
1231.46
1231.47
1231.47
1231.47
1231.47
1231.47
1231.47
1231.47
1231.48
1231.48
1231.49
1231.5
1231.51
1231.52
1231.53
1231.53
1114.54
1185.31
1210.88
1222.51
1228.79
1232.58
1235.06
1236.77
1238
1238.91
1239.6
1240.13
1240.54
1240.87
1241.13
1241.34
1241.51
1241.65
1241.76
1241.85
1241.93
1241.99
1242.04
1242.08
1242.12
1242.14
1242.17
1242.19
1242.2
1242.22
1242.23
1242.24
1242.25
1242.25
1242.26
1242.26
1242.26
1242.27
1242.27
1242.27
1242.27
1242.28
1242.28
1242.28
1242.28
1242.28
1242.28
1242.28
1242.28
1242.28
1242.28
1242.29
1242.29
1242.29
1242.29
1242.3
1242.31
1242.31
1242.32
1242.31
1190.39
1233.01
1242.68
1246.63
1248.72
1249.97
1250.79
1251.36
1251.76
1252.06
1252.29
1252.47
1252.6
1252.71
1252.8
1252.87
1252.92
1252.97
1253
1253.03
1253.06
1253.08
1253.1
1253.11
1253.12
1253.13
1253.14
1253.15
1253.15
1253.15
1253.16
1253.16
1253.16
1253.17
1253.17
1253.17
1253.17
1253.17
1253.17
1253.17
1253.17
1253.17
1253.17
1253.17
1253.18
1253.18
1253.18
1253.18
1253.18
1253.18
1253.18
1253.18
1253.18
1253.18
1253.18
1253.18
1253.18
1253.19
1253.19
1253.2
)
;

boundaryField
{
    top
    {
        type            fixedValue;
        value           uniform 1258.53;
    }
    inlet
    {
        type            fixedValue;
        value           uniform 1000;
    }
    outlet
    {
        type            zeroGradient;
    }
    bottom
    {
        type            symmetryPlane;
    }
    frontAndBack
    {
        type            empty;
    }
}


// ************************************************************************* //
