/*--------------------------------*- C++ -*----------------------------------*\
| =========                 |                                                 |
| \\      /  F ield         | OpenFOAM: The Open Source CFD Toolbox           |
|  \\    /   O peration     | Version:  2412                                  |
|   \\  /    A nd           | Website:  www.openfoam.com                      |
|    \\/     M anipulation  |                                                 |
\*---------------------------------------------------------------------------*/
FoamFile
{
    version     2.0;
    format      ascii;
    arch        "LSB;label=32;scalar=64";
    class       volScalarField;
    location    "0.005";
    object      TTR;
}
// * * * * * * * * * * * * * * * * * * * * * * * * * * * * * * * * * * * * * //

dimensions      [0 0 0 1 0 0 0];

internalField   nonuniform List<scalar> 
1800
(
1001.59
1004.74
1007.79
1010.67
1013.35
1015.79
1017.97
1019.89
1021.55
1022.97
1024.17
1025.17
1026
1026.68
1027.24
1027.69
1028.05
1028.34
1028.57
1028.75
1028.9
1029.01
1029.1
1029.17
1029.23
1029.27
1029.31
1029.33
1029.35
1029.37
1029.38
1029.39
1029.4
1029.4
1029.41
1029.41
1029.41
1029.41
1029.42
1029.42
1029.42
1029.42
1029.42
1029.42
1029.42
1029.42
1029.42
1029.42
1029.42
1029.42
1029.42
1029.42
1029.42
1029.42
1029.42
1029.42
1029.43
1029.43
1029.42
1029.42
1001.61
1004.81
1007.91
1010.83
1013.55
1016.02
1018.22
1020.16
1021.84
1023.27
1024.47
1025.48
1026.32
1027
1027.56
1028.01
1028.37
1028.66
1028.89
1029.07
1029.22
1029.33
1029.42
1029.49
1029.55
1029.59
1029.62
1029.65
1029.67
1029.69
1029.7
1029.71
1029.72
1029.72
1029.73
1029.73
1029.73
1029.73
1029.73
1029.74
1029.74
1029.74
1029.74
1029.74
1029.74
1029.74
1029.74
1029.74
1029.74
1029.74
1029.74
1029.74
1029.74
1029.74
1029.74
1029.74
1029.74
1029.74
1029.74
1029.74
1001.67
1004.96
1008.15
1011.16
1013.95
1016.48
1018.73
1020.7
1022.41
1023.86
1025.08
1026.1
1026.94
1027.63
1028.19
1028.64
1029.01
1029.3
1029.53
1029.71
1029.86
1029.97
1030.06
1030.13
1030.19
1030.23
1030.26
1030.29
1030.31
1030.33
1030.34
1030.35
1030.35
1030.36
1030.36
1030.37
1030.37
1030.37
1030.37
1030.37
1030.38
1030.38
1030.38
1030.38
1030.38
1030.38
1030.38
1030.38
1030.38
1030.38
1030.38
1030.38
1030.38
1030.38
1030.38
1030.38
1030.38
1030.38
1030.38
1030.38
1001.74
1005.19
1008.52
1011.66
1014.55
1017.17
1019.5
1021.53
1023.28
1024.76
1026
1027.04
1027.89
1028.59
1029.15
1029.61
1029.97
1030.26
1030.5
1030.68
1030.83
1030.94
1031.03
1031.1
1031.15
1031.2
1031.23
1031.26
1031.28
1031.29
1031.3
1031.31
1031.32
1031.33
1031.33
1031.33
1031.34
1031.34
1031.34
1031.34
1031.34
1031.34
1031.34
1031.34
1031.34
1031.34
1031.34
1031.34
1031.34
1031.35
1031.35
1031.35
1031.35
1031.35
1031.35
1031.35
1031.35
1031.35
1031.35
1031.35
1001.85
1005.5
1009.02
1012.33
1015.37
1018.11
1020.54
1022.64
1024.45
1025.97
1027.25
1028.3
1029.17
1029.87
1030.44
1030.9
1031.27
1031.56
1031.8
1031.98
1032.13
1032.24
1032.33
1032.4
1032.45
1032.5
1032.53
1032.55
1032.57
1032.59
1032.6
1032.61
1032.62
1032.62
1032.63
1032.63
1032.63
1032.64
1032.64
1032.64
1032.64
1032.64
1032.64
1032.64
1032.64
1032.64
1032.64
1032.64
1032.64
1032.64
1032.64
1032.64
1032.65
1032.65
1032.65
1032.65
1032.65
1032.65
1032.65
1032.65
1001.98
1005.9
1009.67
1013.19
1016.42
1019.32
1021.86
1024.06
1025.93
1027.51
1028.82
1029.9
1030.79
1031.5
1032.08
1032.54
1032.91
1033.21
1033.44
1033.63
1033.77
1033.88
1033.97
1034.04
1034.1
1034.14
1034.17
1034.2
1034.22
1034.23
1034.24
1034.25
1034.26
1034.27
1034.27
1034.27
1034.28
1034.28
1034.28
1034.28
1034.28
1034.28
1034.28
1034.28
1034.28
1034.28
1034.28
1034.28
1034.28
1034.29
1034.29
1034.29
1034.29
1034.29
1034.29
1034.29
1034.29
1034.29
1034.29
1034.29
1002.15
1006.4
1010.46
1014.26
1017.72
1020.8
1023.49
1025.8
1027.75
1029.39
1030.74
1031.85
1032.76
1033.49
1034.07
1034.54
1034.91
1035.21
1035.44
1035.63
1035.77
1035.88
1035.97
1036.04
1036.1
1036.14
1036.17
1036.2
1036.21
1036.23
1036.24
1036.25
1036.26
1036.26
1036.27
1036.27
1036.27
1036.27
1036.28
1036.28
1036.28
1036.28
1036.28
1036.28
1036.28
1036.28
1036.28
1036.28
1036.28
1036.28
1036.28
1036.28
1036.28
1036.29
1036.29
1036.29
1036.29
1036.29
1036.29
1036.29
1002.36
1007
1011.43
1015.55
1019.27
1022.57
1025.43
1027.87
1029.92
1031.63
1033.03
1034.17
1035.1
1035.84
1036.44
1036.91
1037.29
1037.58
1037.82
1038
1038.14
1038.26
1038.34
1038.41
1038.47
1038.51
1038.54
1038.56
1038.58
1038.6
1038.61
1038.62
1038.63
1038.63
1038.63
1038.64
1038.64
1038.64
1038.64
1038.64
1038.65
1038.65
1038.65
1038.65
1038.65
1038.65
1038.65
1038.65
1038.65
1038.65
1038.65
1038.65
1038.65
1038.65
1038.65
1038.66
1038.66
1038.66
1038.65
1038.65
1002.6
1007.71
1012.58
1017.07
1021.12
1024.67
1027.72
1030.31
1032.47
1034.25
1035.7
1036.88
1037.83
1038.59
1039.19
1039.67
1040.05
1040.34
1040.58
1040.76
1040.91
1041.02
1041.1
1041.17
1041.22
1041.27
1041.3
1041.32
1041.34
1041.36
1041.37
1041.38
1041.38
1041.39
1041.39
1041.39
1041.4
1041.4
1041.4
1041.4
1041.4
1041.4
1041.4
1041.4
1041.4
1041.4
1041.41
1041.41
1041.41
1041.41
1041.41
1041.41
1041.41
1041.41
1041.41
1041.41
1041.41
1041.41
1041.41
1041.41
1002.89
1008.56
1013.94
1018.87
1023.28
1027.11
1030.39
1033.14
1035.41
1037.28
1038.78
1040
1040.97
1041.74
1042.36
1042.84
1043.22
1043.52
1043.75
1043.93
1044.08
1044.19
1044.27
1044.34
1044.39
1044.43
1044.46
1044.49
1044.51
1044.52
1044.53
1044.54
1044.55
1044.55
1044.56
1044.56
1044.56
1044.56
1044.57
1044.57
1044.57
1044.57
1044.57
1044.57
1044.57
1044.57
1044.57
1044.57
1044.57
1044.57
1044.57
1044.57
1044.58
1044.58
1044.58
1044.58
1044.58
1044.58
1044.58
1044.58
1003.23
1009.56
1015.52
1020.97
1025.78
1029.94
1033.46
1036.39
1038.79
1040.74
1042.3
1043.55
1044.55
1045.34
1045.96
1046.44
1046.83
1047.13
1047.36
1047.54
1047.68
1047.79
1047.88
1047.94
1047.99
1048.03
1048.06
1048.09
1048.11
1048.12
1048.13
1048.14
1048.14
1048.15
1048.15
1048.16
1048.16
1048.16
1048.16
1048.16
1048.16
1048.16
1048.17
1048.17
1048.17
1048.17
1048.17
1048.17
1048.17
1048.17
1048.17
1048.17
1048.17
1048.17
1048.18
1048.18
1048.18
1048.18
1048.18
1048.18
1003.63
1010.72
1017.38
1023.4
1028.68
1033.2
1036.98
1040.1
1042.63
1044.66
1046.29
1047.58
1048.59
1049.39
1050.02
1050.51
1050.89
1051.19
1051.42
1051.6
1051.74
1051.85
1051.94
1052
1052.05
1052.09
1052.12
1052.14
1052.16
1052.18
1052.19
1052.19
1052.2
1052.2
1052.21
1052.21
1052.21
1052.22
1052.22
1052.22
1052.22
1052.22
1052.22
1052.22
1052.22
1052.22
1052.22
1052.22
1052.22
1052.22
1052.22
1052.23
1052.23
1052.23
1052.23
1052.23
1052.23
1052.23
1052.23
1052.23
1004.1
1012.09
1019.53
1026.21
1032.02
1036.92
1040.99
1044.3
1046.97
1049.09
1050.77
1052.1
1053.14
1053.95
1054.58
1055.07
1055.45
1055.75
1055.98
1056.16
1056.3
1056.4
1056.49
1056.55
1056.6
1056.64
1056.66
1056.69
1056.7
1056.72
1056.73
1056.74
1056.74
1056.75
1056.75
1056.75
1056.76
1056.76
1056.76
1056.76
1056.76
1056.76
1056.76
1056.76
1056.76
1056.76
1056.76
1056.76
1056.76
1056.77
1056.77
1056.77
1056.77
1056.77
1056.77
1056.78
1056.78
1056.78
1056.78
1056.78
1004.65
1013.68
1022.04
1029.46
1035.84
1041.17
1045.53
1049.05
1051.85
1054.06
1055.8
1057.15
1058.21
1059.03
1059.66
1060.16
1060.54
1060.83
1061.06
1061.23
1061.37
1061.47
1061.55
1061.62
1061.66
1061.7
1061.73
1061.75
1061.77
1061.78
1061.79
1061.8
1061.8
1061.81
1061.81
1061.81
1061.82
1061.82
1061.82
1061.82
1061.82
1061.82
1061.82
1061.82
1061.82
1061.82
1061.82
1061.82
1061.82
1061.83
1061.83
1061.83
1061.83
1061.83
1061.84
1061.84
1061.84
1061.84
1061.84
1061.84
1005.29
1015.55
1024.95
1033.22
1040.22
1046
1050.67
1054.39
1057.33
1059.62
1061.4
1062.78
1063.85
1064.68
1065.31
1065.8
1066.18
1066.47
1066.69
1066.87
1067
1067.1
1067.18
1067.24
1067.28
1067.32
1067.35
1067.37
1067.38
1067.4
1067.41
1067.41
1067.42
1067.42
1067.43
1067.43
1067.43
1067.43
1067.43
1067.44
1067.44
1067.44
1067.44
1067.44
1067.44
1067.44
1067.44
1067.44
1067.44
1067.44
1067.44
1067.45
1067.45
1067.45
1067.45
1067.46
1067.46
1067.46
1067.46
1067.46
1006.06
1017.74
1028.35
1037.54
1045.23
1051.48
1056.47
1060.39
1063.45
1065.81
1067.63
1069.03
1070.11
1070.94
1071.57
1072.05
1072.43
1072.71
1072.93
1073.1
1073.23
1073.32
1073.4
1073.46
1073.5
1073.54
1073.56
1073.58
1073.6
1073.61
1073.62
1073.63
1073.63
1073.64
1073.64
1073.64
1073.64
1073.65
1073.65
1073.65
1073.65
1073.65
1073.65
1073.65
1073.65
1073.65
1073.65
1073.65
1073.65
1073.65
1073.66
1073.66
1073.66
1073.66
1073.67
1073.67
1073.68
1073.68
1073.68
1073.68
1006.97
1020.33
1032.31
1042.55
1050.96
1057.7
1063
1067.11
1070.27
1072.69
1074.54
1075.96
1077.03
1077.85
1078.48
1078.96
1079.32
1079.6
1079.81
1079.97
1080.1
1080.19
1080.27
1080.32
1080.36
1080.4
1080.42
1080.44
1080.46
1080.47
1080.48
1080.48
1080.49
1080.49
1080.49
1080.5
1080.5
1080.5
1080.5
1080.5
1080.5
1080.5
1080.5
1080.5
1080.5
1080.51
1080.51
1080.51
1080.51
1080.51
1080.51
1080.51
1080.52
1080.52
1080.53
1080.53
1080.54
1080.54
1080.55
1080.55
1008.06
1023.4
1036.96
1048.34
1057.53
1064.75
1070.34
1074.61
1077.86
1080.33
1082.19
1083.6
1084.67
1085.48
1086.1
1086.56
1086.92
1087.19
1087.39
1087.55
1087.67
1087.76
1087.83
1087.88
1087.92
1087.95
1087.98
1088
1088.01
1088.02
1088.03
1088.03
1088.04
1088.04
1088.05
1088.05
1088.05
1088.05
1088.05
1088.05
1088.05
1088.05
1088.05
1088.05
1088.06
1088.06
1088.06
1088.06
1088.06
1088.06
1088.06
1088.06
1088.07
1088.07
1088.08
1088.09
1088.09
1088.1
1088.11
1088.11
1009.37
1027.07
1042.44
1055.07
1065.05
1072.74
1078.59
1083
1086.31
1088.79
1090.65
1092.05
1093.1
1093.89
1094.49
1094.94
1095.28
1095.54
1095.74
1095.88
1096
1096.08
1096.15
1096.2
1096.24
1096.27
1096.29
1096.31
1096.32
1096.33
1096.34
1096.35
1096.35
1096.35
1096.36
1096.36
1096.36
1096.36
1096.36
1096.36
1096.36
1096.36
1096.36
1096.36
1096.37
1096.37
1096.37
1096.37
1096.37
1096.37
1096.37
1096.37
1096.38
1096.38
1096.39
1096.4
1096.41
1096.43
1096.44
1096.45
1010.99
1031.51
1048.95
1062.91
1073.68
1081.8
1087.86
1092.36
1095.69
1098.16
1100
1101.37
1102.39
1103.15
1103.73
1104.16
1104.49
1104.73
1104.92
1105.06
1105.17
1105.25
1105.31
1105.36
1105.39
1105.42
1105.44
1105.46
1105.47
1105.48
1105.49
1105.49
1105.5
1105.5
1105.5
1105.5
1105.51
1105.51
1105.51
1105.51
1105.51
1105.51
1105.51
1105.51
1105.51
1105.51
1105.51
1105.51
1105.51
1105.51
1105.52
1105.52
1105.52
1105.53
1105.54
1105.55
1105.57
1105.59
1105.61
1105.63
1013.01
1036.94
1056.72
1072.09
1083.61
1092.09
1098.28
1102.81
1106.11
1108.54
1110.33
1111.65
1112.63
1113.36
1113.91
1114.32
1114.62
1114.85
1115.03
1115.16
1115.26
1115.34
1115.39
1115.44
1115.47
1115.5
1115.52
1115.53
1115.54
1115.55
1115.56
1115.56
1115.57
1115.57
1115.57
1115.57
1115.57
1115.58
1115.58
1115.58
1115.58
1115.58
1115.58
1115.58
1115.58
1115.58
1115.58
1115.58
1115.58
1115.58
1115.59
1115.59
1115.59
1115.6
1115.61
1115.62
1115.65
1115.67
1115.71
1115.74
1015.58
1043.66
1066.08
1082.87
1095.04
1103.75
1109.99
1114.46
1117.69
1120.03
1121.74
1123
1123.92
1124.61
1125.12
1125.5
1125.79
1126
1126.16
1126.28
1126.37
1126.44
1126.5
1126.54
1126.57
1126.59
1126.61
1126.62
1126.63
1126.64
1126.65
1126.65
1126.65
1126.66
1126.66
1126.66
1126.66
1126.66
1126.66
1126.66
1126.66
1126.66
1126.66
1126.66
1126.66
1126.67
1126.67
1126.67
1126.67
1126.67
1126.67
1126.67
1126.68
1126.69
1126.7
1126.71
1126.74
1126.78
1126.83
1126.88
1018.94
1052.1
1077.4
1095.52
1108.17
1116.96
1123.1
1127.43
1130.51
1132.73
1134.33
1135.5
1136.35
1136.98
1137.45
1137.8
1138.06
1138.25
1138.4
1138.51
1138.59
1138.65
1138.7
1138.74
1138.76
1138.79
1138.8
1138.81
1138.82
1138.83
1138.83
1138.84
1138.84
1138.84
1138.85
1138.85
1138.85
1138.85
1138.85
1138.85
1138.85
1138.85
1138.85
1138.85
1138.85
1138.85
1138.85
1138.85
1138.85
1138.86
1138.86
1138.86
1138.87
1138.87
1138.89
1138.91
1138.94
1138.99
1139.06
1139.12
1023.47
1062.82
1091.13
1110.33
1123.17
1131.8
1137.69
1141.77
1144.63
1146.67
1148.13
1149.19
1149.97
1150.53
1150.95
1151.26
1151.49
1151.67
1151.79
1151.89
1151.96
1152.02
1152.06
1152.09
1152.12
1152.13
1152.15
1152.16
1152.17
1152.17
1152.18
1152.18
1152.18
1152.19
1152.19
1152.19
1152.19
1152.19
1152.19
1152.19
1152.19
1152.19
1152.19
1152.19
1152.19
1152.19
1152.19
1152.19
1152.19
1152.2
1152.2
1152.2
1152.21
1152.21
1152.23
1152.25
1152.29
1152.34
1152.42
1152.5
1029.8
1076.58
1107.72
1127.52
1140.12
1148.31
1153.76
1157.47
1160.04
1161.85
1163.14
1164.07
1164.75
1165.24
1165.61
1165.87
1166.07
1166.22
1166.33
1166.42
1166.48
1166.53
1166.56
1166.59
1166.61
1166.62
1166.64
1166.64
1166.65
1166.66
1166.66
1166.66
1166.67
1166.67
1166.67
1166.67
1166.67
1166.67
1166.67
1166.67
1166.67
1166.67
1166.67
1166.67
1166.67
1166.67
1166.67
1166.67
1166.68
1166.68
1166.68
1166.68
1166.69
1166.69
1166.71
1166.73
1166.77
1166.83
1166.91
1166.99
1039.09
1094.38
1127.61
1147.18
1158.99
1166.39
1171.2
1174.42
1176.62
1178.16
1179.26
1180.04
1180.6
1181.01
1181.32
1181.54
1181.7
1181.83
1181.92
1181.99
1182.04
1182.08
1182.11
1182.13
1182.15
1182.16
1182.17
1182.18
1182.18
1182.18
1182.19
1182.19
1182.19
1182.19
1182.2
1182.2
1182.2
1182.2
1182.2
1182.2
1182.2
1182.2
1182.2
1182.2
1182.2
1182.2
1182.2
1182.2
1182.2
1182.2
1182.2
1182.21
1182.21
1182.22
1182.23
1182.25
1182.29
1182.35
1182.42
1182.5
1053.48
1117.52
1151.15
1169.24
1179.57
1185.82
1189.78
1192.4
1194.17
1195.4
1196.27
1196.89
1197.33
1197.66
1197.89
1198.07
1198.2
1198.29
1198.36
1198.42
1198.46
1198.49
1198.51
1198.53
1198.54
1198.55
1198.56
1198.56
1198.57
1198.57
1198.57
1198.57
1198.58
1198.58
1198.58
1198.58
1198.58
1198.58
1198.58
1198.58
1198.58
1198.58
1198.58
1198.58
1198.58
1198.58
1198.58
1198.58
1198.58
1198.58
1198.58
1198.59
1198.59
1198.6
1198.61
1198.63
1198.66
1198.71
1198.77
1198.83
1077.15
1147.53
1178.42
1193.42
1201.5
1206.23
1209.18
1211.1
1212.39
1213.28
1213.9
1214.35
1214.67
1214.9
1215.07
1215.19
1215.29
1215.35
1215.4
1215.44
1215.47
1215.49
1215.51
1215.52
1215.53
1215.54
1215.54
1215.55
1215.55
1215.55
1215.55
1215.55
1215.56
1215.56
1215.56
1215.56
1215.56
1215.56
1215.56
1215.56
1215.56
1215.56
1215.56
1215.56
1215.56
1215.56
1215.56
1215.56
1215.56
1215.56
1215.56
1215.56
1215.57
1215.57
1215.58
1215.59
1215.62
1215.65
1215.7
1215.74
1118.09
1185.79
1209.05
1219.11
1224.24
1227.17
1228.97
1230.13
1230.91
1231.44
1231.82
1232.08
1232.27
1232.41
1232.51
1232.58
1232.64
1232.68
1232.71
1232.73
1232.75
1232.76
1232.77
1232.78
1232.78
1232.79
1232.79
1232.79
1232.79
1232.8
1232.8
1232.8
1232.8
1232.8
1232.8
1232.8
1232.8
1232.8
1232.8
1232.8
1232.8
1232.8
1232.8
1232.8
1232.8
1232.8
1232.8
1232.8
1232.8
1232.8
1232.8
1232.8
1232.8
1232.81
1232.81
1232.82
1232.84
1232.86
1232.89
1232.92
1190.81
1232.14
1241.75
1245.38
1247.16
1248.15
1248.76
1249.15
1249.41
1249.58
1249.71
1249.8
1249.86
1249.91
1249.94
1249.96
1249.98
1250
1250.01
1250.01
1250.02
1250.02
1250.03
1250.03
1250.03
1250.03
1250.03
1250.03
1250.03
1250.03
1250.04
1250.04
1250.04
1250.04
1250.04
1250.04
1250.04
1250.04
1250.04
1250.04
1250.04
1250.04
1250.04
1250.04
1250.04
1250.04
1250.04
1250.04
1250.04
1250.04
1250.04
1250.04
1250.04
1250.04
1250.04
1250.04
1250.05
1250.06
1250.06
1250.07
)
;

boundaryField
{
    top
    {
        type            fixedValue;
        value           uniform 1258.53;
    }
    inlet
    {
        type            fixedValue;
        value           uniform 1000;
    }
    outlet
    {
        type            zeroGradient;
    }
    bottom
    {
        type            symmetryPlane;
    }
    frontAndBack
    {
        type            empty;
    }
}


// ************************************************************************* //
