/*--------------------------------*- C++ -*----------------------------------*\
| =========                 |                                                 |
| \\      /  F ield         | OpenFOAM: The Open Source CFD Toolbox           |
|  \\    /   O peration     | Version:  2412                                  |
|   \\  /    A nd           | Website:  www.openfoam.com                      |
|    \\/     M anipulation  |                                                 |
\*---------------------------------------------------------------------------*/
FoamFile
{
    version     2.0;
    format      ascii;
    arch        "LSB;label=32;scalar=64";
    class       volVectorField;
    location    "0.005";
    object      U;
}
// * * * * * * * * * * * * * * * * * * * * * * * * * * * * * * * * * * * * * //

dimensions      [0 1 -1 0 0 0 0];

internalField   nonuniform List<vector> 
1800
(
(-0.435485 -0.159605 0)
(-4.77762 -0.473465 0)
(-6.8527 -0.767755 0)
(-7.31176 -1.03154 0)
(-6.84138 -1.25825 0)
(-5.92191 -1.44573 0)
(-4.83223 -1.59539 0)
(-3.72191 -1.71112 0)
(-2.66917 -1.79807 0)
(-1.71369 -1.8617 0)
(-0.872974 -1.90716 0)
(-0.150913 -1.93894 0)
(0.457085 -1.96067 0)
(0.960628 -1.97524 0)
(1.37186 -1.9848 0)
(1.70371 -1.99093 0)
(1.9688 -1.99476 0)
(2.17871 -1.99708 0)
(2.34369 -1.99843 0)
(2.47254 -1.99916 0)
(2.5726 -1.99952 0)
(2.64994 -1.99966 0)
(2.70947 -1.99968 0)
(2.75514 -1.99963 0)
(2.79005 -1.99955 0)
(2.81668 -1.99946 0)
(2.83695 -1.99938 0)
(2.85233 -1.9993 0)
(2.864 -1.99924 0)
(2.87282 -1.99919 0)
(2.8795 -1.99914 0)
(2.88454 -1.99911 0)
(2.88834 -1.99908 0)
(2.8912 -1.99906 0)
(2.89336 -1.99904 0)
(2.89498 -1.99903 0)
(2.8962 -1.99902 0)
(2.89712 -1.99901 0)
(2.89781 -1.999 0)
(2.89832 -1.999 0)
(2.89871 -1.99899 0)
(2.899 -1.99899 0)
(2.89922 -1.99899 0)
(2.89939 -1.99899 0)
(2.89951 -1.99899 0)
(2.8996 -1.99899 0)
(2.89967 -1.99899 0)
(2.89972 -1.99899 0)
(2.89976 -1.99898 0)
(2.89979 -1.99898 0)
(2.89981 -1.99898 0)
(2.89983 -1.99898 0)
(2.89984 -1.99899 0)
(2.89985 -1.999 0)
(2.89985 -1.99907 0)
(2.89985 -1.99937 0)
(2.89985 -2.00042 0)
(2.89984 -2.00328 0)
(2.89984 -2.00965 0)
(2.89984 -2.02122 0)
(-0.518789 -0.485619 0)
(-4.96177 -1.44036 0)
(-7.07273 -2.3351 0)
(-7.52577 -3.13642 0)
(-7.02924 -3.8244 0)
(-6.07699 -4.39259 0)
(-4.95489 -4.84558 0)
(-3.8157 -5.19537 0)
(-2.73887 -5.4578 0)
(-1.76419 -5.6496 0)
(-0.908714 -5.78646 0)
(-0.175669 -5.88198 0)
(0.440289 -5.94725 0)
(0.949464 -5.99093 0)
(1.36459 -6.01956 0)
(1.69909 -6.03789 0)
(1.96594 -6.04934 0)
(2.177 -6.05625 0)
(2.34271 -6.06025 0)
(2.47201 -6.06243 0)
(2.57235 -6.06348 0)
(2.64985 -6.06388 0)
(2.70947 -6.06391 0)
(2.75517 -6.06375 0)
(2.79011 -6.06351 0)
(2.81674 -6.06325 0)
(2.837 -6.06299 0)
(2.85238 -6.06277 0)
(2.86403 -6.06257 0)
(2.87285 -6.06241 0)
(2.87951 -6.06228 0)
(2.88454 -6.06217 0)
(2.88834 -6.06209 0)
(2.8912 -6.06202 0)
(2.89335 -6.06197 0)
(2.89497 -6.06193 0)
(2.89618 -6.0619 0)
(2.8971 -6.06187 0)
(2.89779 -6.06186 0)
(2.8983 -6.06184 0)
(2.89869 -6.06183 0)
(2.89898 -6.06182 0)
(2.8992 -6.06182 0)
(2.89937 -6.06181 0)
(2.89949 -6.06181 0)
(2.89958 -6.06181 0)
(2.89965 -6.0618 0)
(2.8997 -6.0618 0)
(2.89974 -6.0618 0)
(2.89977 -6.0618 0)
(2.89979 -6.0618 0)
(2.89981 -6.0618 0)
(2.89982 -6.06181 0)
(2.89982 -6.06186 0)
(2.89983 -6.06211 0)
(2.89983 -6.06316 0)
(2.89982 -6.06659 0)
(2.89981 -6.07567 0)
(2.89981 -6.09531 0)
(2.89981 -6.1304 0)
(-0.685103 -0.827128 0)
(-5.3309 -2.45259 0)
(-7.51562 -3.97413 0)
(-7.95768 -5.3344 0)
(-7.40866 -6.49962 0)
(-6.39002 -7.45945 0)
(-5.20211 -8.22255 0)
(-4.00441 -8.81013 0)
(-2.87882 -9.24969 0)
(-1.86537 -9.57005 0)
(-0.980194 -9.79804 0)
(-0.225088 -9.95674 0)
(0.406823 -10.0649 0)
(0.927262 -10.1371 0)
(1.35017 -10.1843 0)
(1.68994 -10.2144 0)
(1.96029 -10.2332 0)
(2.17363 -10.2444 0)
(2.34079 -10.2509 0)
(2.47099 -10.2544 0)
(2.57186 -10.2561 0)
(2.64967 -10.2567 0)
(2.70946 -10.2567 0)
(2.75525 -10.2564 0)
(2.79022 -10.256 0)
(2.81685 -10.2555 0)
(2.8371 -10.2551 0)
(2.85246 -10.2547 0)
(2.86409 -10.2544 0)
(2.87289 -10.2541 0)
(2.87954 -10.2539 0)
(2.88455 -10.2537 0)
(2.88833 -10.2536 0)
(2.89118 -10.2535 0)
(2.89333 -10.2534 0)
(2.89494 -10.2533 0)
(2.89615 -10.2532 0)
(2.89706 -10.2532 0)
(2.89775 -10.2532 0)
(2.89826 -10.2532 0)
(2.89865 -10.2531 0)
(2.89894 -10.2531 0)
(2.89915 -10.2531 0)
(2.89932 -10.2531 0)
(2.89944 -10.2531 0)
(2.89953 -10.2531 0)
(2.8996 -10.2531 0)
(2.89965 -10.2531 0)
(2.89969 -10.2531 0)
(2.89972 -10.2531 0)
(2.89974 -10.2531 0)
(2.89976 -10.2531 0)
(2.89977 -10.2531 0)
(2.89977 -10.2532 0)
(2.89978 -10.2537 0)
(2.89977 -10.2556 0)
(2.89977 -10.2617 0)
(2.89976 -10.2775 0)
(2.89975 -10.3112 0)
(2.89975 -10.3706 0)
(-0.937304 -1.1935 0)
(-5.89182 -3.53743 0)
(-8.19006 -5.72761 0)
(-8.61588 -7.68028 0)
(-7.98639 -9.34716 0)
(-6.86562 -10.7148 0)
(-5.57664 -11.7975 0)
(-4.28935 -12.6275 0)
(-3.08942 -13.2458 0)
(-2.01711 -13.6945 0)
(-1.08704 -14.0126 0)
(-0.298718 -14.2331 0)
(0.357119 -14.3827 0)
(0.894394 -14.4823 0)
(1.3289 -14.547 0)
(1.6765 -14.5882 0)
(1.95202 -14.6137 0)
(2.16872 -14.6289 0)
(2.33801 -14.6376 0)
(2.46952 -14.6422 0)
(2.57118 -14.6443 0)
(2.64945 -14.645 0)
(2.70948 -14.6449 0)
(2.75538 -14.6445 0)
(2.79038 -14.6438 0)
(2.81702 -14.6431 0)
(2.83724 -14.6425 0)
(2.85257 -14.642 0)
(2.86417 -14.6415 0)
(2.87294 -14.6411 0)
(2.87956 -14.6408 0)
(2.88456 -14.6405 0)
(2.88832 -14.6403 0)
(2.89115 -14.6402 0)
(2.89328 -14.6401 0)
(2.89489 -14.64 0)
(2.89609 -14.6399 0)
(2.897 -14.6398 0)
(2.89768 -14.6398 0)
(2.89819 -14.6398 0)
(2.89857 -14.6397 0)
(2.89886 -14.6397 0)
(2.89907 -14.6397 0)
(2.89924 -14.6397 0)
(2.89936 -14.6397 0)
(2.89945 -14.6397 0)
(2.89952 -14.6397 0)
(2.89957 -14.6397 0)
(2.89961 -14.6397 0)
(2.89963 -14.6397 0)
(2.89966 -14.6397 0)
(2.89967 -14.6397 0)
(2.89968 -14.6397 0)
(2.89969 -14.6399 0)
(2.89969 -14.6406 0)
(2.89968 -14.6435 0)
(2.89967 -14.6526 0)
(2.89966 -14.6758 0)
(2.89965 -14.7244 0)
(2.89965 -14.8094 0)
(-1.28121 -1.59516 0)
(-6.65717 -4.72513 0)
(-9.11065 -7.64267 0)
(-9.51346 -10.2341 0)
(-8.77225 -12.4359 0)
(-7.5102 -14.2326 0)
(-6.08199 -15.6469 0)
(-4.67197 -16.7249 0)
(-3.37084 -17.5231 0)
(-2.21891 -18.0992 0)
(-1.22846 -18.5052 0)
(-0.395732 -18.7851 0)
(0.291928 -18.9742 0)
(0.851482 -19.0992 0)
(1.30126 -19.1801 0)
(1.65912 -19.2312 0)
(1.9414 -19.2626 0)
(2.16246 -19.2811 0)
(2.3345 -19.2916 0)
(2.4677 -19.297 0)
(2.57037 -19.2994 0)
(2.6492 -19.3001 0)
(2.70952 -19.2998 0)
(2.75556 -19.299 0)
(2.79061 -19.2981 0)
(2.81724 -19.2972 0)
(2.83743 -19.2964 0)
(2.85271 -19.2957 0)
(2.86427 -19.2951 0)
(2.873 -19.2945 0)
(2.87958 -19.2941 0)
(2.88454 -19.2938 0)
(2.88828 -19.2935 0)
(2.89109 -19.2933 0)
(2.89321 -19.2932 0)
(2.8948 -19.2931 0)
(2.89599 -19.293 0)
(2.89689 -19.2929 0)
(2.89757 -19.2928 0)
(2.89807 -19.2928 0)
(2.89845 -19.2928 0)
(2.89874 -19.2927 0)
(2.89895 -19.2927 0)
(2.89911 -19.2927 0)
(2.89923 -19.2927 0)
(2.89932 -19.2927 0)
(2.89939 -19.2927 0)
(2.89944 -19.2927 0)
(2.89948 -19.2927 0)
(2.8995 -19.2927 0)
(2.89952 -19.2927 0)
(2.89954 -19.2927 0)
(2.89955 -19.2927 0)
(2.89955 -19.2929 0)
(2.89955 -19.294 0)
(2.89954 -19.2981 0)
(2.89953 -19.3105 0)
(2.89951 -19.3416 0)
(2.8995 -19.4063 0)
(2.8995 -19.5186 0)
(-1.72555 -2.04401 0)
(-7.64552 -6.05008 0)
(-10.2981 -9.77257 0)
(-10.6683 -13.0632 0)
(-9.77925 -15.842 0)
(-8.33182 -18.0943 0)
(-6.72228 -19.8543 0)
(-5.15371 -21.1858 0)
(-3.72291 -22.1646 0)
(-2.4698 -22.8658 0)
(-1.40321 -23.3565 0)
(-0.514884 -23.6926 0)
(0.212337 -23.918 0)
(0.79941 -24.066 0)
(1.26793 -24.1611 0)
(1.63831 -24.2207 0)
(1.92879 -24.2569 0)
(2.1551 -24.278 0)
(2.33044 -24.2897 0)
(2.46564 -24.2955 0)
(2.56949 -24.2979 0)
(2.64897 -24.2984 0)
(2.70963 -24.2978 0)
(2.75581 -24.2967 0)
(2.7909 -24.2955 0)
(2.8175 -24.2943 0)
(2.83764 -24.2932 0)
(2.85287 -24.2923 0)
(2.86437 -24.2915 0)
(2.87304 -24.2909 0)
(2.87958 -24.2904 0)
(2.8845 -24.29 0)
(2.8882 -24.2897 0)
(2.89099 -24.2894 0)
(2.89309 -24.2892 0)
(2.89466 -24.2891 0)
(2.89584 -24.2889 0)
(2.89673 -24.2889 0)
(2.89739 -24.2888 0)
(2.89789 -24.2887 0)
(2.89827 -24.2887 0)
(2.89855 -24.2887 0)
(2.89876 -24.2886 0)
(2.89892 -24.2886 0)
(2.89904 -24.2886 0)
(2.89913 -24.2886 0)
(2.89919 -24.2886 0)
(2.89924 -24.2886 0)
(2.89928 -24.2886 0)
(2.89931 -24.2886 0)
(2.89933 -24.2886 0)
(2.89934 -24.2886 0)
(2.89935 -24.2886 0)
(2.89935 -24.289 0)
(2.89935 -24.2904 0)
(2.89934 -24.2957 0)
(2.89932 -24.3118 0)
(2.89929 -24.3517 0)
(2.89928 -24.4338 0)
(2.89928 -24.5757 0)
(-2.28218 -2.55394 0)
(-8.88172 -7.55228 0)
(-11.7797 -12.1787 0)
(-12.1032 -16.2441 0)
(-11.0234 -19.6518 0)
(-9.34003 -22.3906 0)
(-7.50203 -24.5119 0)
(-5.73576 -26.1021 0)
(-4.14493 -27.2607 0)
(-2.76819 -28.0834 0)
(-1.60946 -28.6543 0)
(-0.654468 -29.042 0)
(0.119797 -29.2997 0)
(0.739333 -29.4676 0)
(1.2298 -29.5743 0)
(1.61473 -29.6405 0)
(1.91466 -29.6802 0)
(2.14698 -29.703 0)
(2.32604 -29.7152 0)
(2.46349 -29.721 0)
(2.56863 -29.7231 0)
(2.64882 -29.7231 0)
(2.70983 -29.722 0)
(2.75615 -29.7205 0)
(2.79125 -29.719 0)
(2.81781 -29.7175 0)
(2.83788 -29.7161 0)
(2.85302 -29.715 0)
(2.86445 -29.714 0)
(2.87305 -29.7133 0)
(2.87953 -29.7126 0)
(2.8844 -29.7122 0)
(2.88807 -29.7118 0)
(2.89082 -29.7115 0)
(2.89289 -29.7112 0)
(2.89444 -29.7111 0)
(2.89561 -29.7109 0)
(2.89649 -29.7108 0)
(2.89714 -29.7107 0)
(2.89764 -29.7107 0)
(2.898 -29.7106 0)
(2.89828 -29.7106 0)
(2.89849 -29.7106 0)
(2.89865 -29.7105 0)
(2.89876 -29.7105 0)
(2.89885 -29.7105 0)
(2.89891 -29.7105 0)
(2.89896 -29.7105 0)
(2.899 -29.7105 0)
(2.89903 -29.7105 0)
(2.89905 -29.7105 0)
(2.89906 -29.7105 0)
(2.89907 -29.7106 0)
(2.89907 -29.711 0)
(2.89906 -29.7128 0)
(2.89904 -29.7196 0)
(2.89902 -29.7397 0)
(2.89899 -29.7892 0)
(2.89897 -29.8905 0)
(2.89897 -30.0646 0)
(-2.96634 -3.14154 0)
(-10.3975 -9.27909 0)
(-13.5894 -14.933 0)
(-13.8463 -19.8656 0)
(-12.5239 -23.9634 0)
(-10.5456 -27.2239 0)
(-8.42582 -29.7224 0)
(-6.41877 -31.5754 0)
(-4.63543 -32.911 0)
(-3.11174 -33.8496 0)
(-1.84475 -34.4942 0)
(-0.812253 -34.9275 0)
(0.0161518 -35.2126 0)
(0.672689 -35.3963 0)
(1.18794 -35.5117 0)
(1.58914 -35.5823 0)
(1.89954 -35.6239 0)
(2.13846 -35.6472 0)
(2.32156 -35.6592 0)
(2.46141 -35.6644 0)
(2.5679 -35.6658 0)
(2.64881 -35.6651 0)
(2.71015 -35.6635 0)
(2.75657 -35.6615 0)
(2.79166 -35.6594 0)
(2.81814 -35.6576 0)
(2.83811 -35.656 0)
(2.85316 -35.6546 0)
(2.86448 -35.6534 0)
(2.87301 -35.6525 0)
(2.87941 -35.6518 0)
(2.88423 -35.6512 0)
(2.88784 -35.6508 0)
(2.89056 -35.6504 0)
(2.8926 -35.6502 0)
(2.89413 -35.65 0)
(2.89528 -35.6498 0)
(2.89614 -35.6497 0)
(2.89678 -35.6496 0)
(2.89727 -35.6495 0)
(2.89763 -35.6495 0)
(2.8979 -35.6494 0)
(2.8981 -35.6494 0)
(2.89826 -35.6494 0)
(2.89837 -35.6493 0)
(2.89846 -35.6493 0)
(2.89852 -35.6493 0)
(2.89857 -35.6493 0)
(2.89861 -35.6493 0)
(2.89863 -35.6493 0)
(2.89865 -35.6493 0)
(2.89866 -35.6493 0)
(2.89867 -35.6494 0)
(2.89867 -35.6499 0)
(2.89866 -35.6522 0)
(2.89863 -35.6606 0)
(2.8986 -35.6852 0)
(2.89856 -35.7453 0)
(2.89853 -35.8677 0)
(2.89853 -36.0774 0)
(-3.79726 -3.82691 0)
(-12.2324 -11.2876 0)
(-15.7692 -18.1211 0)
(-15.9309 -24.0318 0)
(-14.3023 -28.8902 0)
(-11.9599 -32.7103 0)
(-9.49772 -35.6014 0)
(-7.20236 -37.7186 0)
(-5.19185 -39.2257 0)
(-3.49715 -40.2717 0)
(-2.10582 -40.9815 0)
(-0.985415 -41.4528 0)
(-0.0963295 -41.7592 0)
(0.601214 -41.9539 0)
(1.14363 -42.0746 0)
(1.56247 -42.147 0)
(1.88409 -42.1886 0)
(2.12997 -42.2111 0)
(2.31729 -42.222 0)
(2.45958 -42.2261 0)
(2.56742 -42.2264 0)
(2.649 -42.2248 0)
(2.71061 -42.2224 0)
(2.75709 -42.2197 0)
(2.79212 -42.2172 0)
(2.81848 -42.2149 0)
(2.83832 -42.2129 0)
(2.85324 -42.2113 0)
(2.86445 -42.21 0)
(2.87287 -42.2089 0)
(2.87919 -42.2081 0)
(2.88393 -42.2074 0)
(2.88749 -42.2069 0)
(2.89017 -42.2065 0)
(2.89217 -42.2062 0)
(2.89367 -42.2059 0)
(2.8948 -42.2057 0)
(2.89564 -42.2056 0)
(2.89627 -42.2055 0)
(2.89675 -42.2054 0)
(2.8971 -42.2054 0)
(2.89737 -42.2053 0)
(2.89757 -42.2053 0)
(2.89772 -42.2053 0)
(2.89783 -42.2052 0)
(2.89792 -42.2052 0)
(2.89798 -42.2052 0)
(2.89803 -42.2052 0)
(2.89806 -42.2052 0)
(2.89809 -42.2052 0)
(2.8981 -42.2052 0)
(2.89811 -42.2052 0)
(2.89812 -42.2053 0)
(2.89811 -42.206 0)
(2.8981 -42.2088 0)
(2.89807 -42.2189 0)
(2.89802 -42.2485 0)
(2.89797 -42.3204 0)
(2.89794 -42.4662 0)
(2.89794 -42.7153 0)
(-4.79878 -4.6348 0)
(-14.4347 -13.6474 0)
(-18.3689 -21.8463 0)
(-18.3956 -28.866 0)
(-16.3827 -34.5644 0)
(-13.5944 -38.9833 0)
(-10.7206 -42.2794 0)
(-8.08465 -44.6582 0)
(-5.81015 -46.327 0)
(-3.91988 -47.4688 0)
(-2.38848 -48.2327 0)
(-1.17047 -48.7327 0)
(-0.21492 -49.0529 0)
(0.526946 -49.2531 0)
(1.09834 -49.3747 0)
(1.53575 -49.4461 0)
(1.86901 -49.4858 0)
(2.12201 -49.5061 0)
(2.31353 -49.5149 0)
(2.4582 -49.5172 0)
(2.56729 -49.516 0)
(2.64945 -49.5132 0)
(2.71125 -49.5097 0)
(2.75771 -49.5063 0)
(2.79261 -49.5031 0)
(2.81881 -49.5004 0)
(2.83848 -49.4981 0)
(2.85323 -49.4962 0)
(2.8643 -49.4946 0)
(2.8726 -49.4934 0)
(2.87882 -49.4924 0)
(2.88348 -49.4917 0)
(2.88698 -49.4911 0)
(2.8896 -49.4906 0)
(2.89156 -49.4903 0)
(2.89303 -49.49 0)
(2.89413 -49.4898 0)
(2.89496 -49.4897 0)
(2.89558 -49.4895 0)
(2.89604 -49.4894 0)
(2.89639 -49.4894 0)
(2.89665 -49.4893 0)
(2.89684 -49.4893 0)
(2.89699 -49.4893 0)
(2.8971 -49.4892 0)
(2.89718 -49.4892 0)
(2.89724 -49.4892 0)
(2.89729 -49.4892 0)
(2.89732 -49.4892 0)
(2.89734 -49.4892 0)
(2.89736 -49.4892 0)
(2.89737 -49.4892 0)
(2.89737 -49.4893 0)
(2.89736 -49.4901 0)
(2.89734 -49.4935 0)
(2.8973 -49.5056 0)
(2.89724 -49.5408 0)
(2.89719 -49.6259 0)
(2.89714 -49.7978 0)
(2.89713 -50.0909 0)
(-6.00024 -5.59616 0)
(-17.0632 -16.4449 0)
(-21.4477 -26.234 0)
(-21.2841 -34.5152 0)
(-18.7903 -41.1402 0)
(-15.4595 -46.1958 0)
(-12.0954 -49.9043 0)
(-9.06147 -52.5359 0)
(-6.48433 -54.3514 0)
(-4.37386 -55.5731 0)
(-2.68747 -56.3769 0)
(-1.36318 -56.8941 0)
(-0.336409 -57.2194 0)
(0.452233 -57.4186 0)
(1.05374 -57.5367 0)
(1.51013 -57.6037 0)
(1.85509 -57.6392 0)
(2.11508 -57.6558 0)
(2.31062 -57.6615 0)
(2.45747 -57.6613 0)
(2.56764 -57.6582 0)
(2.65022 -57.6538 0)
(2.71209 -57.6492 0)
(2.75842 -57.6448 0)
(2.79312 -57.641 0)
(2.81909 -57.6377 0)
(2.83854 -57.635 0)
(2.85309 -57.6328 0)
(2.86399 -57.631 0)
(2.87214 -57.6296 0)
(2.87824 -57.6285 0)
(2.88281 -57.6277 0)
(2.88624 -57.627 0)
(2.8888 -57.6265 0)
(2.89071 -57.6261 0)
(2.89215 -57.6258 0)
(2.89322 -57.6256 0)
(2.89403 -57.6254 0)
(2.89463 -57.6253 0)
(2.89508 -57.6252 0)
(2.89542 -57.6251 0)
(2.89567 -57.6251 0)
(2.89586 -57.625 0)
(2.896 -57.625 0)
(2.89611 -57.625 0)
(2.89619 -57.625 0)
(2.89625 -57.6249 0)
(2.89629 -57.6249 0)
(2.89633 -57.6249 0)
(2.89635 -57.6249 0)
(2.89636 -57.6249 0)
(2.89637 -57.6249 0)
(2.89637 -57.6251 0)
(2.89636 -57.626 0)
(2.89633 -57.6301 0)
(2.89628 -57.6443 0)
(2.89621 -57.6858 0)
(2.89614 -57.7856 0)
(2.89608 -57.9867 0)
(2.89607 -58.3291 0)
(-7.43767 -6.75027 0)
(-20.1881 -19.788 0)
(-25.074 -31.4388 0)
(-24.6447 -41.1563 0)
(-21.5504 -48.7993 0)
(-17.5632 -54.5244 0)
(-13.6196 -58.644 0)
(-10.1256 -61.5112 0)
(-7.20593 -63.4513 0)
(-4.85126 -64.7319 0)
(-2.99627 -65.5581 0)
(-1.55854 -66.0788 0)
(-0.457083 -66.3989 0)
(0.37973 -66.5899 0)
(1.01168 -66.6993 0)
(1.48688 -66.7584 0)
(1.84316 -66.7873 0)
(2.10972 -66.7986 0)
(2.3089 -66.8002 0)
(2.4576 -66.7967 0)
(2.56857 -66.7911 0)
(2.65136 -66.7849 0)
(2.71313 -66.7789 0)
(2.75921 -66.7735 0)
(2.7936 -66.7689 0)
(2.81927 -66.765 0)
(2.83844 -66.7619 0)
(2.85275 -66.7594 0)
(2.86345 -66.7574 0)
(2.87143 -66.7558 0)
(2.8774 -66.7546 0)
(2.88187 -66.7536 0)
(2.8852 -66.7529 0)
(2.8877 -66.7523 0)
(2.88956 -66.7519 0)
(2.89096 -66.7516 0)
(2.89201 -66.7513 0)
(2.89279 -66.7511 0)
(2.89337 -66.751 0)
(2.89381 -66.7509 0)
(2.89414 -66.7508 0)
(2.89438 -66.7507 0)
(2.89456 -66.7507 0)
(2.8947 -66.7507 0)
(2.89481 -66.7506 0)
(2.89488 -66.7506 0)
(2.89494 -66.7506 0)
(2.89498 -66.7506 0)
(2.89501 -66.7506 0)
(2.89503 -66.7506 0)
(2.89505 -66.7506 0)
(2.89505 -66.7506 0)
(2.89505 -66.7508 0)
(2.89503 -66.7519 0)
(2.895 -66.7566 0)
(2.89494 -66.7734 0)
(2.89486 -66.8218 0)
(2.89478 -66.9382 0)
(2.8947 -67.1722 0)
(2.89468 -67.5701 0)
(-9.1552 -8.14765 0)
(-23.8935 -23.8139 0)
(-29.3264 -37.6522 0)
(-28.5289 -49.0031 0)
(-24.6866 -57.7556 0)
(-19.9089 -64.1727 0)
(-15.2858 -68.689 0)
(-11.2657 -71.763 0)
(-7.9634 -73.797 0)
(-5.34211 -75.1096 0)
(-3.30703 -75.9365 0)
(-1.75066 -76.4448 0)
(-0.572725 -76.7482 0)
(0.312375 -76.9227 0)
(0.974155 -77.0179 0)
(1.46733 -77.0654 0)
(1.83409 -77.0851 0)
(2.1065 -77.0894 0)
(2.30871 -77.0857 0)
(2.45879 -77.0783 0)
(2.57019 -77.0697 0)
(2.65291 -77.0614 0)
(2.71436 -77.0538 0)
(2.76004 -77.0472 0)
(2.79401 -77.0417 0)
(2.8193 -77.0373 0)
(2.83812 -77.0337 0)
(2.85215 -77.0308 0)
(2.8626 -77.0286 0)
(2.8704 -77.0268 0)
(2.87622 -77.0254 0)
(2.88056 -77.0244 0)
(2.8838 -77.0236 0)
(2.88622 -77.023 0)
(2.88803 -77.0225 0)
(2.88938 -77.0222 0)
(2.89039 -77.0219 0)
(2.89115 -77.0217 0)
(2.89172 -77.0215 0)
(2.89214 -77.0214 0)
(2.89245 -77.0213 0)
(2.89269 -77.0212 0)
(2.89287 -77.0212 0)
(2.893 -77.0212 0)
(2.8931 -77.0211 0)
(2.89317 -77.0211 0)
(2.89323 -77.0211 0)
(2.89327 -77.0211 0)
(2.8933 -77.0211 0)
(2.89332 -77.021 0)
(2.89333 -77.021 0)
(2.89333 -77.0211 0)
(2.89333 -77.0213 0)
(2.89331 -77.0226 0)
(2.89327 -77.0282 0)
(2.8932 -77.0477 0)
(2.8931 -77.104 0)
(2.89301 -77.239 0)
(2.89291 -77.5101 0)
(2.89287 -77.9706 0)
(-11.2068 -9.85423 0)
(-28.2789 -28.6988 0)
(-34.2927 -45.1145 0)
(-32.9888 -58.3167 0)
(-28.2171 -68.2638 0)
(-22.493 -75.3778 0)
(-17.0801 -80.2584 0)
(-12.465 -83.4955 0)
(-8.74147 -85.5821 0)
(-5.83401 -86.8926 0)
(-3.61038 -87.6948 0)
(-1.9328 -88.172 0)
(-0.678637 -88.4458 0)
(0.253365 -88.5951 0)
(0.943302 -88.6701 0)
(1.45287 -88.702 0)
(1.82877 -88.71 0)
(2.10596 -88.7055 0)
(2.31038 -88.6954 0)
(2.4612 -88.6834 0)
(2.57258 -88.6714 0)
(2.65489 -88.6606 0)
(2.71578 -88.6512 0)
(2.76086 -88.6434 0)
(2.79429 -88.637 0)
(2.81908 -88.6318 0)
(2.8375 -88.6277 0)
(2.85118 -88.6245 0)
(2.86136 -88.622 0)
(2.86894 -88.6201 0)
(2.87459 -88.6186 0)
(2.87879 -88.6174 0)
(2.88193 -88.6165 0)
(2.88427 -88.6159 0)
(2.88602 -88.6154 0)
(2.88732 -88.615 0)
(2.8883 -88.6147 0)
(2.88902 -88.6144 0)
(2.88957 -88.6143 0)
(2.88997 -88.6142 0)
(2.89028 -88.6141 0)
(2.8905 -88.614 0)
(2.89068 -88.6139 0)
(2.8908 -88.6139 0)
(2.8909 -88.6139 0)
(2.89097 -88.6138 0)
(2.89102 -88.6138 0)
(2.89106 -88.6138 0)
(2.89109 -88.6138 0)
(2.89111 -88.6138 0)
(2.89112 -88.6138 0)
(2.89112 -88.6138 0)
(2.89111 -88.6141 0)
(2.89108 -88.6156 0)
(2.89104 -88.6221 0)
(2.89096 -88.6447 0)
(2.89085 -88.7099 0)
(2.89074 -88.866 0)
(2.89062 -89.179 0)
(2.89056 -89.7158 0)
(-13.6587 -11.9584 0)
(-33.4607 -34.6765 0)
(-40.0687 -54.1383 0)
(-38.0734 -69.4285 0)
(-32.1507 -80.6408 0)
(-25.3011 -88.4308 0)
(-18.9794 -93.6186 0)
(-13.7004 -96.9567 0)
(-9.5205 -99.0423 0)
(-6.3119 -100.309 0)
(-3.89543 -101.057 0)
(-2.09738 -101.482 0)
(-0.769684 -101.712 0)
(0.206101 -101.827 0)
(0.921329 -101.876 0)
(1.44491 -101.888 0)
(1.82809 -101.882 0)
(2.10863 -101.867 0)
(2.3142 -101.849 0)
(2.465 -101.832 0)
(2.57579 -101.816 0)
(2.65728 -101.802 0)
(2.71732 -101.791 0)
(2.76161 -101.782 0)
(2.79433 -101.774 0)
(2.81853 -101.769 0)
(2.83646 -101.764 0)
(2.84975 -101.76 0)
(2.85962 -101.758 0)
(2.86695 -101.755 0)
(2.8724 -101.754 0)
(2.87645 -101.753 0)
(2.87948 -101.752 0)
(2.88173 -101.751 0)
(2.8834 -101.75 0)
(2.88466 -101.75 0)
(2.88559 -101.75 0)
(2.88629 -101.749 0)
(2.88681 -101.749 0)
(2.8872 -101.749 0)
(2.88749 -101.749 0)
(2.88771 -101.749 0)
(2.88787 -101.749 0)
(2.88799 -101.749 0)
(2.88808 -101.749 0)
(2.88815 -101.749 0)
(2.8882 -101.749 0)
(2.88824 -101.749 0)
(2.88826 -101.749 0)
(2.88828 -101.749 0)
(2.88829 -101.749 0)
(2.88829 -101.749 0)
(2.88827 -101.749 0)
(2.88825 -101.751 0)
(2.88819 -101.758 0)
(2.8881 -101.784 0)
(2.88798 -101.86 0)
(2.88785 -102.04 0)
(2.88771 -102.406 0)
(2.88762 -103.052 0)
(-16.5917 -14.5828 0)
(-39.5729 -42.0653 0)
(-46.7533 -65.1411 0)
(-43.8214 -82.7751 0)
(-36.4803 -95.2997 0)
(-28.3035 -103.711 0)
(-20.9486 -109.118 0)
(-14.9405 -112.474 0)
(-10.2759 -114.492 0)
(-6.7579 -115.667 0)
(-4.14977 -116.325 0)
(-2.23606 -116.676 0)
(-0.840389 -116.847 0)
(0.174115 -116.918 0)
(0.910475 -116.934 0)
(1.44484 -116.922 0)
(1.83288 -116.899 0)
(2.115 -116.872 0)
(2.32044 -116.846 0)
(2.4703 -116.823 0)
(2.57984 -116.803 0)
(2.66006 -116.786 0)
(2.71891 -116.773 0)
(2.76217 -116.762 0)
(2.79403 -116.754 0)
(2.81753 -116.747 0)
(2.83488 -116.742 0)
(2.84772 -116.738 0)
(2.85723 -116.735 0)
(2.86428 -116.733 0)
(2.86952 -116.731 0)
(2.87341 -116.73 0)
(2.8763 -116.729 0)
(2.87846 -116.728 0)
(2.88006 -116.727 0)
(2.88125 -116.727 0)
(2.88215 -116.726 0)
(2.88281 -116.726 0)
(2.88331 -116.726 0)
(2.88368 -116.726 0)
(2.88396 -116.726 0)
(2.88416 -116.726 0)
(2.88432 -116.726 0)
(2.88443 -116.725 0)
(2.88452 -116.725 0)
(2.88458 -116.725 0)
(2.88463 -116.725 0)
(2.88467 -116.725 0)
(2.88469 -116.725 0)
(2.88471 -116.725 0)
(2.88471 -116.725 0)
(2.88471 -116.725 0)
(2.88469 -116.726 0)
(2.88466 -116.728 0)
(2.8846 -116.737 0)
(2.8845 -116.767 0)
(2.88437 -116.853 0)
(2.88423 -117.065 0)
(2.88405 -117.514 0)
(2.88393 -118.319 0)
(-20.1046 -17.894 0)
(-46.7654 -51.2789 0)
(-54.4403 -78.6526 0)
(-50.2503 -98.903 0)
(-41.1735 -112.757 0)
(-31.4491 -121.693 0)
(-22.9378 -127.201 0)
(-16.1446 -130.469 0)
(-10.9778 -132.339 0)
(-7.15124 -133.366 0)
(-4.35956 -133.899 0)
(-2.33987 -134.15 0)
(-0.885053 -134.248 0)
(0.16097 -134.264 0)
(0.912932 -134.242 0)
(1.45398 -134.203 0)
(1.84391 -134.161 0)
(2.12549 -134.121 0)
(2.32929 -134.085 0)
(2.47717 -134.055 0)
(2.58472 -134.031 0)
(2.66314 -134.011 0)
(2.72046 -133.995 0)
(2.76243 -133.983 0)
(2.79325 -133.973 0)
(2.81591 -133.966 0)
(2.83261 -133.96 0)
(2.84493 -133.956 0)
(2.85404 -133.953 0)
(2.86079 -133.95 0)
(2.86578 -133.948 0)
(2.86949 -133.947 0)
(2.87225 -133.946 0)
(2.8743 -133.945 0)
(2.87582 -133.944 0)
(2.87695 -133.944 0)
(2.8778 -133.943 0)
(2.87843 -133.943 0)
(2.8789 -133.943 0)
(2.87925 -133.943 0)
(2.87951 -133.943 0)
(2.87971 -133.942 0)
(2.87985 -133.942 0)
(2.87996 -133.942 0)
(2.88004 -133.942 0)
(2.88011 -133.942 0)
(2.88015 -133.942 0)
(2.88018 -133.942 0)
(2.88021 -133.942 0)
(2.88022 -133.942 0)
(2.88022 -133.942 0)
(2.88022 -133.942 0)
(2.8802 -133.943 0)
(2.88016 -133.945 0)
(2.8801 -133.955 0)
(2.87999 -133.99 0)
(2.87985 -134.092 0)
(2.87969 -134.357 0)
(2.87948 -134.926 0)
(2.8793 -135.918 0)
(-24.3168 -22.0884 0)
(-55.1975 -62.7674 0)
(-63.2015 -95.2225 0)
(-57.3389 -118.363 0)
(-46.1602 -133.525 0)
(-34.6585 -142.85 0)
(-24.8786 -148.307 0)
(-17.2616 -151.363 0)
(-11.5907 -152.997 0)
(-7.46858 -153.816 0)
(-4.50992 -154.185 0)
(-2.39954 -154.314 0)
(-0.898008 -154.323 0)
(0.170069 -154.276 0)
(0.930692 -154.21 0)
(1.47346 -154.141 0)
(1.86176 -154.077 0)
(2.14035 -154.023 0)
(2.34082 -153.977 0)
(2.48553 -153.94 0)
(2.59028 -153.911 0)
(2.66635 -153.888 0)
(2.72173 -153.87 0)
(2.76215 -153.856 0)
(2.79174 -153.845 0)
(2.81344 -153.837 0)
(2.82939 -153.831 0)
(2.84113 -153.826 0)
(2.8498 -153.823 0)
(2.8562 -153.82 0)
(2.86094 -153.818 0)
(2.86445 -153.816 0)
(2.86705 -153.815 0)
(2.86899 -153.814 0)
(2.87042 -153.814 0)
(2.87149 -153.813 0)
(2.87229 -153.813 0)
(2.87288 -153.812 0)
(2.87333 -153.812 0)
(2.87366 -153.812 0)
(2.8739 -153.812 0)
(2.87409 -153.812 0)
(2.87422 -153.812 0)
(2.87432 -153.812 0)
(2.8744 -153.812 0)
(2.87446 -153.812 0)
(2.8745 -153.812 0)
(2.87453 -153.812 0)
(2.87455 -153.812 0)
(2.87456 -153.812 0)
(2.87457 -153.812 0)
(2.87456 -153.812 0)
(2.87454 -153.812 0)
(2.8745 -153.815 0)
(2.87443 -153.826 0)
(2.87432 -153.868 0)
(2.87417 -153.998 0)
(2.87399 -154.339 0)
(2.87374 -155.037 0)
(2.87342 -156.139 0)
(-29.3483 -27.33 0)
(-64.9688 -76.8429 0)
(-73.0144 -115.175 0)
(-64.9751 -141.433 0)
(-51.3023 -157.831 0)
(-37.809 -167.371 0)
(-26.6784 -172.605 0)
(-18.2276 -175.318 0)
(-12.0732 -176.623 0)
(-7.68424 -177.176 0)
(-4.58536 -177.345 0)
(-2.40596 -177.331 0)
(-0.874047 -177.239 0)
(0.20425 -177.122 0)
(0.965172 -177.008 0)
(1.50384 -176.906 0)
(1.8865 -176.82 0)
(2.15934 -176.75 0)
(2.3546 -176.695 0)
(2.49484 -176.651 0)
(2.59592 -176.617 0)
(2.66902 -176.59 0)
(2.72206 -176.57 0)
(2.76065 -176.555 0)
(2.78881 -176.543 0)
(2.80941 -176.534 0)
(2.82451 -176.527 0)
(2.83561 -176.522 0)
(2.84379 -176.518 0)
(2.84982 -176.515 0)
(2.85427 -176.513 0)
(2.85757 -176.511 0)
(2.86001 -176.51 0)
(2.86183 -176.509 0)
(2.86317 -176.508 0)
(2.86417 -176.508 0)
(2.86492 -176.508 0)
(2.86547 -176.507 0)
(2.86588 -176.507 0)
(2.86619 -176.507 0)
(2.86642 -176.507 0)
(2.86659 -176.507 0)
(2.86672 -176.507 0)
(2.86682 -176.507 0)
(2.86689 -176.506 0)
(2.86694 -176.506 0)
(2.86698 -176.506 0)
(2.86701 -176.506 0)
(2.86703 -176.506 0)
(2.86704 -176.506 0)
(2.86704 -176.506 0)
(2.86703 -176.506 0)
(2.86701 -176.507 0)
(2.86697 -176.51 0)
(2.86689 -176.524 0)
(2.86678 -176.578 0)
(2.86662 -176.748 0)
(2.86643 -177.163 0)
(2.86608 -177.904 0)
(2.86527 -178.87 0)
(-35.517 -33.6479 0)
(-76.4358 -93.4209 0)
(-83.9409 -138.253 0)
(-73.0178 -167.722 0)
(-56.4081 -185.207 0)
(-40.7367 -194.757 0)
(-28.2203 -199.592 0)
(-18.9669 -201.833 0)
(-12.3787 -202.729 0)
(-7.7703 -202.967 0)
(-4.56948 -202.909 0)
(-2.34959 -202.735 0)
(-0.807671 -202.534 0)
(0.266677 -202.344 0)
(1.01818 -202.18 0)
(1.54614 -202.045 0)
(1.9187 -201.937 0)
(2.18278 -201.852 0)
(2.37079 -201.786 0)
(2.50519 -201.735 0)
(2.60166 -201.696 0)
(2.67117 -201.666 0)
(2.72143 -201.644 0)
(2.75789 -201.627 0)
(2.78443 -201.614 0)
(2.80379 -201.605 0)
(2.81796 -201.597 0)
(2.82835 -201.592 0)
(2.83599 -201.588 0)
(2.84161 -201.585 0)
(2.84577 -201.582 0)
(2.84883 -201.581 0)
(2.8511 -201.579 0)
(2.85279 -201.578 0)
(2.85403 -201.578 0)
(2.85496 -201.577 0)
(2.85565 -201.577 0)
(2.85616 -201.576 0)
(2.85655 -201.576 0)
(2.85683 -201.576 0)
(2.85704 -201.576 0)
(2.8572 -201.576 0)
(2.85732 -201.576 0)
(2.85741 -201.576 0)
(2.85747 -201.576 0)
(2.85752 -201.576 0)
(2.85756 -201.576 0)
(2.85758 -201.576 0)
(2.8576 -201.576 0)
(2.85761 -201.576 0)
(2.85761 -201.576 0)
(2.8576 -201.576 0)
(2.85758 -201.576 0)
(2.85753 -201.58 0)
(2.85746 -201.599 0)
(2.85734 -201.67 0)
(2.85719 -201.876 0)
(2.85694 -202.298 0)
(2.85625 -202.867 0)
(2.85613 -203.283 0)
(-43.2811 -40.8388 0)
(-90.0471 -111.791 0)
(-96.0508 -163.313 0)
(-81.2841 -195.819 0)
(-61.2373 -214.128 0)
(-43.2436 -223.458 0)
(-29.3689 -227.731 0)
(-19.3947 -229.398 0)
(-12.4565 -229.825 0)
(-7.69669 -229.718 0)
(-4.44414 -229.418 0)
(-2.21902 -229.08 0)
(-0.691178 -228.769 0)
(0.363001 -228.506 0)
(1.09426 -228.293 0)
(1.60429 -228.126 0)
(1.96195 -227.996 0)
(2.21408 -227.897 0)
(2.3927 -227.822 0)
(2.51984 -227.765 0)
(2.61075 -227.722 0)
(2.67603 -227.69 0)
(2.72308 -227.665 0)
(2.75712 -227.647 0)
(2.78182 -227.633 0)
(2.79982 -227.623 0)
(2.81295 -227.616 0)
(2.82257 -227.61 0)
(2.82963 -227.606 0)
(2.83482 -227.602 0)
(2.83864 -227.6 0)
(2.84146 -227.598 0)
(2.84355 -227.597 0)
(2.8451 -227.596 0)
(2.84624 -227.595 0)
(2.84709 -227.594 0)
(2.84772 -227.594 0)
(2.84819 -227.594 0)
(2.84854 -227.594 0)
(2.8488 -227.593 0)
(2.849 -227.593 0)
(2.84914 -227.593 0)
(2.84925 -227.593 0)
(2.84933 -227.593 0)
(2.84939 -227.593 0)
(2.84944 -227.593 0)
(2.84947 -227.593 0)
(2.84949 -227.593 0)
(2.84951 -227.593 0)
(2.84951 -227.593 0)
(2.84951 -227.593 0)
(2.8495 -227.593 0)
(2.84948 -227.594 0)
(2.84944 -227.599 0)
(2.84936 -227.624 0)
(2.84925 -227.709 0)
(2.84907 -227.913 0)
(2.84867 -228.199 0)
(2.84861 -228.286 0)
(2.85115 -227.669 0)
(-52.6437 -48.4406 0)
(-105.422 -130.558 0)
(-108.82 -188.238 0)
(-89.2873 -223.205 0)
(-65.4187 -241.918 0)
(-45.081 -250.776 0)
(-29.9713 -254.353 0)
(-19.422 -255.384 0)
(-12.2555 -255.321 0)
(-7.43363 -254.864 0)
(-4.19107 -254.327 0)
(-2.00201 -253.832 0)
(-0.515459 -253.418 0)
(0.500746 -253.088 0)
(1.20013 -252.832 0)
(1.68464 -252.637 0)
(2.02243 -252.489 0)
(2.25933 -252.378 0)
(2.42641 -252.295 0)
(2.54487 -252.233 0)
(2.62927 -252.187 0)
(2.68968 -252.153 0)
(2.7331 -252.127 0)
(2.76443 -252.108 0)
(2.78711 -252.093 0)
(2.8036 -252.083 0)
(2.81562 -252.075 0)
(2.8244 -252.069 0)
(2.83083 -252.065 0)
(2.83556 -252.061 0)
(2.83904 -252.059 0)
(2.8416 -252.057 0)
(2.8435 -252.056 0)
(2.8449 -252.055 0)
(2.84593 -252.054 0)
(2.8467 -252.053 0)
(2.84728 -252.053 0)
(2.8477 -252.053 0)
(2.84802 -252.052 0)
(2.84825 -252.052 0)
(2.84843 -252.052 0)
(2.84856 -252.052 0)
(2.84865 -252.052 0)
(2.84873 -252.052 0)
(2.84878 -252.052 0)
(2.84882 -252.052 0)
(2.84885 -252.052 0)
(2.84887 -252.052 0)
(2.84888 -252.052 0)
(2.84889 -252.052 0)
(2.84889 -252.052 0)
(2.84888 -252.052 0)
(2.84885 -252.053 0)
(2.84881 -252.06 0)
(2.84874 -252.09 0)
(2.84862 -252.173 0)
(2.84839 -252.301 0)
(2.84836 -252.27 0)
(2.8502 -251.566 0)
(2.85543 -249.528 0)
(-62.678 -55.8161 0)
(-120.644 -147.821 0)
(-120.584 -210.178 0)
(-95.951 -246.521 0)
(-68.3385 -265.03 0)
(-45.9182 -273.144 0)
(-29.8546 -275.934 0)
(-18.9597 -276.321 0)
(-11.7301 -275.788 0)
(-6.95751 -275.012 0)
(-3.79744 -274.264 0)
(-1.69095 -273.635 0)
(-0.275344 -273.135 0)
(0.68398 -272.751 0)
(1.3394 -272.462 0)
(1.79064 -272.245 0)
(2.10354 -272.084 0)
(2.32196 -271.965 0)
(2.47538 -271.877 0)
(2.58376 -271.812 0)
(2.66073 -271.764 0)
(2.71567 -271.728 0)
(2.75505 -271.701 0)
(2.7834 -271.682 0)
(2.80389 -271.667 0)
(2.81874 -271.657 0)
(2.82956 -271.649 0)
(2.83745 -271.643 0)
(2.84322 -271.638 0)
(2.84745 -271.635 0)
(2.85057 -271.633 0)
(2.85286 -271.631 0)
(2.85455 -271.629 0)
(2.8558 -271.628 0)
(2.85673 -271.628 0)
(2.85741 -271.627 0)
(2.85792 -271.627 0)
(2.8583 -271.626 0)
(2.85858 -271.626 0)
(2.85879 -271.626 0)
(2.85895 -271.626 0)
(2.85906 -271.626 0)
(2.85915 -271.626 0)
(2.85921 -271.626 0)
(2.85926 -271.626 0)
(2.8593 -271.626 0)
(2.85932 -271.626 0)
(2.85934 -271.626 0)
(2.85935 -271.626 0)
(2.85936 -271.626 0)
(2.85936 -271.626 0)
(2.85934 -271.626 0)
(2.85932 -271.628 0)
(2.85928 -271.636 0)
(2.8592 -271.665 0)
(2.85907 -271.717 0)
(2.85899 -271.686 0)
(2.85991 -271.187 0)
(2.86331 -269.508 0)
(2.86842 -265.912 0)
(-71.7611 -62.3283 0)
(-132.584 -161.516 0)