/*--------------------------------*- C++ -*----------------------------------*\
| =========                 |                                                 |
| \\      /  F ield         | OpenFOAM: The Open Source CFD Toolbox           |
|  \\    /   O peration     | Version:  2412                                  |
|   \\  /    A nd           | Website:  www.openfoam.com                      |
|    \\/     M anipulation  |                                                 |
\*---------------------------------------------------------------------------*/
FoamFile
{
    version     2.0;
    format      ascii;
    arch        "LSB;label=32;scalar=64";
    class       volVectorField;
    location    "0.005";
    object      U;
}
// * * * * * * * * * * * * * * * * * * * * * * * * * * * * * * * * * * * * * //

dimensions      [0 1 -1 0 0 0 0];

internalField   nonuniform List<vector> 
1800
(
(-16.8118 -0.477648 0)
(-43.8859 -1.41377 0)
(-56.854 -2.29149 0)
(-60.0779 -3.08022 0)
(-58.0553 -3.76093 0)
(-53.6023 -4.32646 0)
(-48.1732 -4.77976 0)
(-42.4824 -5.13094 0)
(-36.8968 -5.39424 0)
(-31.619 -5.58529 0)
(-26.7628 -5.71926 0)
(-22.3852 -5.80967 0)
(-18.5042 -5.8679 0)
(-15.1107 -5.90307 0)
(-12.1773 -5.92224 0)
(-9.66601 -5.93066 0)
(-7.53344 -5.93216 0)
(-5.7348 -5.92946 0)
(-4.22652 -5.9244 0)
(-2.96785 -5.91822 0)
(-1.92179 -5.91173 0)
(-1.05544 -5.90539 0)
(-0.340039 -5.8995 0)
(0.249247 -5.89419 0)
(0.733619 -5.88951 0)
(1.13104 -5.88544 0)
(1.45661 -5.88196 0)
(1.72297 -5.879 0)
(1.94065 -5.87651 0)
(2.11836 -5.87443 0)
(2.26333 -5.87269 0)
(2.3815 -5.87125 0)
(2.47775 -5.87007 0)
(2.55612 -5.86909 0)
(2.61988 -5.86828 0)
(2.67174 -5.86762 0)
(2.7139 -5.86708 0)
(2.74815 -5.86664 0)
(2.77597 -5.86628 0)
(2.79856 -5.86598 0)
(2.81688 -5.86574 0)
(2.83175 -5.86554 0)
(2.8438 -5.86538 0)
(2.85356 -5.86525 0)
(2.86146 -5.86514 0)
(2.86786 -5.86505 0)
(2.87302 -5.86498 0)
(2.8772 -5.86492 0)
(2.88057 -5.86487 0)
(2.88328 -5.86483 0)
(2.88546 -5.86479 0)
(2.88722 -5.86477 0)
(2.88863 -5.86474 0)
(2.88975 -5.86472 0)
(2.89065 -5.8647 0)
(2.89137 -5.86474 0)
(2.89198 -5.86512 0)
(2.89256 -5.86707 0)
(2.89315 -5.87385 0)
(2.89357 -5.8906 0)
(-17.0852 -1.44531 0)
(-44.4912 -4.27744 0)
(-57.5644 -6.93164 0)
(-60.7596 -9.31487 0)
(-58.6502 -11.3696 0)
(-54.0932 -13.0746 0)
(-48.5619 -14.4395 0)
(-42.7795 -15.4954 0)
(-37.1164 -16.2859 0)
(-31.7761 -16.8587 0)
(-26.8712 -17.2596 0)
(-22.457 -17.5296 0)
(-18.5494 -17.7032 0)
(-15.137 -17.8076 0)
(-12.1907 -17.8642 0)
(-9.67088 -17.8887 0)
(-7.53294 -17.8926 0)
(-5.73115 -17.884 0)
(-4.2212 -17.8685 0)
(-2.96185 -17.8497 0)
(-1.91573 -17.83 0)
(-1.04968 -17.8108 0)
(-0.334775 -17.793 0)
(0.253922 -17.777 0)
(0.737686 -17.7628 0)
(1.13452 -17.7506 0)
(1.45955 -17.7401 0)
(1.72543 -17.7312 0)
(1.94268 -17.7237 0)
(2.12003 -17.7174 0)
(2.26469 -17.7122 0)
(2.38259 -17.7078 0)
(2.47862 -17.7043 0)
(2.5568 -17.7013 0)
(2.62041 -17.6989 0)
(2.67214 -17.6969 0)
(2.71419 -17.6953 0)
(2.74835 -17.694 0)
(2.7761 -17.6929 0)
(2.79863 -17.692 0)
(2.81691 -17.6913 0)
(2.83174 -17.6907 0)
(2.84375 -17.6902 0)
(2.85349 -17.6898 0)
(2.86137 -17.6895 0)
(2.86775 -17.6892 0)
(2.8729 -17.689 0)
(2.87706 -17.6888 0)
(2.88042 -17.6887 0)
(2.88313 -17.6885 0)
(2.88531 -17.6884 0)
(2.88706 -17.6883 0)
(2.88846 -17.6883 0)
(2.88958 -17.6882 0)
(2.89048 -17.6882 0)
(2.8912 -17.6883 0)
(2.8918 -17.6898 0)
(2.89238 -17.6965 0)
(2.89296 -17.7185 0)
(2.89338 -17.7703 0)
(-17.6221 -2.44192 0)
(-45.6917 -7.22518 0)
(-58.9833 -11.7032 0)
(-62.1266 -15.7175 0)
(-59.8447 -19.1712 0)
(-55.0781 -22.03 0)
(-49.3406 -24.3123 0)
(-43.3735 -26.073 0)
(-37.5548 -27.3872 0)
(-32.0889 -28.3363 0)
(-27.0866 -28.9984 0)
(-22.5993 -29.4427 0)
(-18.6385 -29.7267 0)
(-15.1885 -29.8965 0)
(-12.2166 -29.9873 0)
(-9.67994 -30.0254 0)
(-7.53144 -30.0299 0)
(-5.72346 -30.014 0)
(-4.21028 -29.9869 0)
(-2.94964 -29.9547 0)
(-1.90345 -29.9213 0)
(-1.03805 -29.8889 0)
(-0.324174 -29.8589 0)
(0.263323 -29.832 0)
(0.745856 -29.8082 0)
(1.14151 -29.7877 0)
(1.46545 -29.7701 0)
(1.73036 -29.7552 0)
(1.94676 -29.7427 0)
(2.12337 -29.7322 0)
(2.26739 -29.7235 0)
(2.38476 -29.7163 0)
(2.48035 -29.7103 0)
(2.55815 -29.7054 0)
(2.62145 -29.7013 0)
(2.67292 -29.698 0)
(2.71476 -29.6953 0)
(2.74876 -29.6931 0)
(2.77636 -29.6913 0)
(2.79877 -29.6898 0)
(2.81696 -29.6886 0)
(2.8317 -29.6876 0)
(2.84366 -29.6868 0)
(2.85334 -29.6861 0)
(2.86118 -29.6856 0)
(2.86752 -29.6852 0)
(2.87265 -29.6848 0)
(2.87679 -29.6845 0)
(2.88013 -29.6842 0)
(2.88282 -29.684 0)
(2.88498 -29.6838 0)
(2.88672 -29.6837 0)
(2.88812 -29.6836 0)
(2.88924 -29.6835 0)
(2.89013 -29.6834 0)
(2.89084 -29.6838 0)
(2.89143 -29.6866 0)
(2.892 -29.6989 0)
(2.89258 -29.7375 0)
(2.893 -29.8262 0)
(-18.423 -3.48517 0)
(-47.493 -10.308 0)
(-61.1224 -16.6851 0)
(-64.1913 -22.3873 0)
(-61.6479 -27.2773 0)
(-56.5619 -31.3098 0)
(-50.5102 -34.5159 0)
(-44.2627 -36.9786 0)
(-38.2084 -38.8083 0)
(-32.5535 -40.1234 0)
(-27.405 -41.0361 0)
(-22.8084 -41.6446 0)
(-18.7684 -42.0307 0)
(-15.2629 -42.2588 0)
(-12.2532 -42.3784 0)
(-9.69179 -42.426 0)
(-7.52789 -42.4278 0)
(-5.71097 -42.4024 0)
(-4.19322 -42.3621 0)
(-2.93084 -42.3154 0)
(-1.88468 -42.2673 0)
(-1.02036 -42.2211 0)
(-0.30811 -42.1785 0)
(0.277532 -42.1404 0)
(0.758179 -42.1069 0)
(1.15203 -42.078 0)
(1.47432 -42.0532 0)
(1.73776 -42.0323 0)
(1.95287 -42.0147 0)
(2.12837 -42 0)
(2.27144 -41.9877 0)
(2.38801 -41.9776 0)
(2.48292 -41.9692 0)
(2.56017 -41.9624 0)
(2.623 -41.9567 0)
(2.67409 -41.9521 0)
(2.71561 -41.9483 0)
(2.74934 -41.9451 0)
(2.77673 -41.9426 0)
(2.79896 -41.9405 0)
(2.817 -41.9388 0)
(2.83163 -41.9375 0)
(2.84349 -41.9363 0)
(2.8531 -41.9354 0)
(2.86088 -41.9347 0)
(2.86717 -41.934 0)
(2.87225 -41.9335 0)
(2.87636 -41.9331 0)
(2.87967 -41.9328 0)
(2.88234 -41.9325 0)
(2.88448 -41.9322 0)
(2.88621 -41.932 0)
(2.88759 -41.9318 0)
(2.8887 -41.9317 0)
(2.88958 -41.9316 0)
(2.89028 -41.9323 0)
(2.89086 -41.9367 0)
(2.89142 -41.9553 0)
(2.892 -42.0119 0)
(2.89241 -42.1394 0)
(-19.4963 -4.5945 0)
(-49.9156 -13.5817 0)
(-64.0054 -21.9628 0)
(-66.9742 -29.4311 0)
(-64.0735 -35.8072 0)
(-58.5508 -41.0385 0)
(-52.0709 -45.1745 0)
(-45.4433 -48.3326 0)
(-39.0716 -50.6646 0)
(-33.1634 -52.3296 0)
(-27.8203 -53.4767 0)
(-23.079 -54.2351 0)
(-18.9348 -54.7109 0)
(-15.3565 -54.9876 0)
(-12.2976 -55.1283 0)
(-9.70434 -55.1794 0)
(-7.52073 -55.1743 0)
(-5.69256 -55.1361 0)
(-4.16921 -55.0804 0)
(-2.90489 -55.0174 0)
(-1.85905 -54.9536 0)
(-0.996353 -54.8928 0)
(-0.286412 -54.8371 0)
(0.296659 -54.7874 0)
(0.774722 -54.7439 0)
(1.16613 -54.7064 0)
(1.48619 -54.6744 0)
(1.74763 -54.6474 0)
(1.96101 -54.6246 0)
(2.13502 -54.6057 0)
(2.27682 -54.5899 0)
(2.39231 -54.5769 0)
(2.48633 -54.5661 0)
(2.56282 -54.5573 0)
(2.62503 -54.55 0)
(2.6756 -54.544 0)
(2.7167 -54.5391 0)
(2.75008 -54.5351 0)
(2.77719 -54.5319 0)
(2.79919 -54.5292 0)
(2.81704 -54.527 0)
(2.83151 -54.5253 0)
(2.84324 -54.5238 0)
(2.85275 -54.5226 0)
(2.86044 -54.5217 0)
(2.86666 -54.5209 0)
(2.87169 -54.5202 0)
(2.87575 -54.5197 0)
(2.87903 -54.5192 0)
(2.88167 -54.5189 0)
(2.88379 -54.5185 0)
(2.88549 -54.5183 0)
(2.88686 -54.518 0)
(2.88795 -54.5178 0)
(2.88881 -54.5178 0)
(2.8895 -54.5188 0)
(2.89007 -54.5251 0)
(2.89062 -54.5507 0)
(2.89119 -54.6266 0)
(2.8916 -54.7951 0)
(-20.8576 -5.79171 0)
(-52.9928 -17.1086 0)
(-67.6687 -27.6316 0)
(-70.5045 -36.9665 0)
(-67.1392 -44.8909 0)
(-61.0517 -51.3498 0)
(-54.0216 -56.42 0)
(-46.9092 -60.2622 0)
(-40.1358 -63.0768 0)
(-33.9095 -65.0693 0)
(-28.3239 -66.429 0)
(-23.4037 -67.318 0)
(-19.1315 -67.8675 0)
(-15.4645 -68.1798 0)
(-12.3463 -68.3316 0)
(-9.71478 -68.3788 0)
(-7.50793 -68.3613 0)
(-5.66675 -68.3062 0)
(-4.1372 -68.2322 0)
(-2.87105 -68.1509 0)
(-1.82604 -68.07 0)
(-0.965699 -67.9937 0)
(-0.25886 -67.9242 0)
(0.320841 -67.8625 0)
(0.795567 -67.8087 0)
(1.18384 -67.7624 0)
(1.50106 -67.723 0)
(1.75999 -67.6898 0)
(1.97117 -67.6619 0)
(2.1433 -67.6387 0)
(2.2835 -67.6194 0)
(2.39765 -67.6034 0)
(2.49054 -67.5903 0)
(2.56609 -67.5794 0)
(2.62752 -67.5706 0)
(2.67745 -67.5633 0)
(2.71802 -67.5573 0)
(2.75096 -67.5524 0)
(2.77771 -67.5485 0)
(2.79942 -67.5452 0)
(2.81703 -67.5426 0)
(2.83131 -67.5404 0)
(2.84288 -67.5386 0)
(2.85225 -67.5372 0)
(2.85984 -67.536 0)
(2.86598 -67.5351 0)
(2.87094 -67.5343 0)
(2.87494 -67.5336 0)
(2.87817 -67.5331 0)
(2.88078 -67.5326 0)
(2.88287 -67.5322 0)
(2.88455 -67.5319 0)
(2.88589 -67.5316 0)
(2.88696 -67.5313 0)
(2.88781 -67.5313 0)
(2.88848 -67.5327 0)
(2.88903 -67.5411 0)
(2.88957 -67.5742 0)
(2.89012 -67.6709 0)
(2.89053 -67.8827 0)
(-22.5292 -7.10194 0)
(-56.7713 -20.9601 0)
(-72.1611 -33.7991 0)
(-74.8192 -45.1248 0)
(-70.8665 -54.6712 0)
(-64.072 -62.389 0)
(-56.3594 -68.394 0)
(-48.6512 -72.9021 0)
(-41.389 -76.1719 0)
(-34.7796 -78.4621 0)
(-28.9045 -80.0065 0)
(-23.7727 -81.0016 0)
(-19.3507 -81.6047 0)
(-15.5808 -81.9368 0)
(-12.3944 -82.0875 0)
(-9.71966 -82.1218 0)
(-7.48697 -82.085 0)
(-5.63174 -82.0084 0)
(-4.09593 -81.9126 0)
(-2.82845 -81.8107 0)
(-1.78507 -81.711 0)
(-0.927998 -81.6179 0)
(-0.225199 -81.5339 0)
(0.350239 -81.4597 0)
(0.820807 -81.3952 0)
(1.20521 -81.34 0)
(1.51895 -81.2931 0)
(1.77481 -81.2536 0)
(1.98334 -81.2205 0)
(2.15319 -81.193 0)
(2.29147 -81.1702 0)
(2.40399 -81.1513 0)
(2.49552 -81.1358 0)
(2.56994 -81.123 0)
(2.63044 -81.1125 0)
(2.67959 -81.1039 0)
(2.71952 -81.0969 0)
(2.75195 -81.0912 0)
(2.77826 -81.0865 0)
(2.79962 -81.0827 0)
(2.81695 -81.0795 0)
(2.83099 -81.077 0)
(2.84237 -81.0749 0)
(2.85159 -81.0732 0)
(2.85905 -81.0718 0)
(2.86509 -81.0707 0)
(2.86997 -81.0697 0)
(2.87391 -81.069 0)
(2.87708 -81.0683 0)
(2.87964 -81.0678 0)
(2.88169 -81.0673 0)
(2.88334 -81.0669 0)
(2.88466 -81.0666 0)
(2.88571 -81.0663 0)
(2.88654 -81.0663 0)
(2.88719 -81.0682 0)
(2.88772 -81.0788 0)
(2.88824 -81.1201 0)
(2.88878 -81.2389 0)
(2.88918 -81.4965 0)
(-24.5404 -8.5546 0)
(-61.3116 -25.2192 0)
(-77.5438 -40.5891 0)
(-79.9634 -54.0547 0)
(-75.2797 -65.3072 0)
(-67.6179 -74.315 0)
(-59.078 -81.249 0)
(-50.6563 -86.3957 0)
(-42.8156 -90.084 0)
(-35.7579 -92.6338 0)
(-29.548 -94.3276 0)
(-24.1743 -95.3989 0)
(-19.5828 -96.0315 0)
(-15.698 -96.3645 0)
(-12.4365 -96.4999 0)
(-9.7149 -96.5105 0)
(-7.45487 -96.4469 0)
(-5.58544 -96.3432 0)
(-4.04394 -96.2217 0)
(-2.77608 -96.0965 0)
(-1.73546 -95.9761 0)
(-0.882799 -95.8651 0)
(-0.185139 -95.7656 0)
(0.385027 -95.6783 0)
(0.850542 -95.6029 0)
(1.2303 -95.5385 0)
(1.53988 -95.4839 0)
(1.7921 -95.4381 0)
(1.99749 -95.3998 0)
(2.16466 -95.3679 0)
(2.30067 -95.3416 0)
(2.41129 -95.3198 0)
(2.50123 -95.3019 0)
(2.57433 -95.2872 0)
(2.63373 -95.2751 0)
(2.68198 -95.2652 0)
(2.72117 -95.2571 0)
(2.75299 -95.2505 0)
(2.77881 -95.2452 0)
(2.79976 -95.2408 0)
(2.81675 -95.2372 0)
(2.83052 -95.2343 0)
(2.84168 -95.2319 0)
(2.85072 -95.2299 0)
(2.85804 -95.2283 0)
(2.86396 -95.227 0)
(2.86874 -95.2259 0)
(2.8726 -95.225 0)
(2.87571 -95.2243 0)
(2.87822 -95.2237 0)
(2.88023 -95.2231 0)
(2.88184 -95.2227 0)
(2.88313 -95.2223 0)
(2.88416 -95.222 0)
(2.88497 -95.2221 0)
(2.88559 -95.2244 0)
(2.8861 -95.2374 0)
(2.8866 -95.2875 0)
(2.88712 -95.4298 0)
(2.88751 -95.7361 0)
(-26.9278 -10.1849 0)
(-66.6886 -29.9846 0)
(-83.8911 -48.1465 0)
(-85.9898 -63.9269 0)
(-80.4047 -76.978 0)
(-71.6934 -87.3031 0)
(-62.1668 -95.15 0)
(-52.9061 -100.896 0)
(-44.3948 -104.954 0)
(-36.8246 -107.716 0)
(-30.2371 -109.516 0)
(-24.5941 -110.628 0)
(-19.8166 -111.262 0)
(-15.8075 -111.574 0)
(-12.4661 -111.677 0)
(-9.69581 -111.653 0)
(-7.40831 -111.553 0)
(-5.52547 -111.416 0)
(-3.97957 -111.265 0)
(-2.71282 -111.113 0)
(-1.67644 -110.97 0)
(-0.829611 -110.84 0)
(-0.13837 -110.724 0)
(0.425395 -110.623 0)
(0.884876 -110.536 0)
(1.25915 -110.463 0)
(1.56386 -110.4 0)
(1.81185 -110.348 0)
(2.01359 -110.304 0)
(2.17766 -110.268 0)
(2.31106 -110.238 0)
(2.4195 -110.214 0)
(2.50761 -110.193 0)
(2.5792 -110.177 0)
(2.63736 -110.163 0)
(2.68458 -110.152 0)
(2.72292 -110.143 0)
(2.75404 -110.135 0)
(2.7793 -110.129 0)
(2.79978 -110.124 0)
(2.81639 -110.12 0)
(2.82986 -110.117 0)
(2.84077 -110.114 0)
(2.8496 -110.112 0)
(2.85675 -110.11 0)
(2.86254 -110.109 0)
(2.86721 -110.108 0)
(2.87098 -110.107 0)
(2.87402 -110.106 0)
(2.87647 -110.105 0)
(2.87843 -110.105 0)
(2.88001 -110.104 0)
(2.88126 -110.104 0)
(2.88226 -110.103 0)
(2.88304 -110.103 0)
(2.88365 -110.106 0)
(2.88413 -110.122 0)
(2.8846 -110.181 0)
(2.88511 -110.349 0)
(2.88548 -110.707 0)
(-29.7371 -12.0357 0)
(-72.9935 -35.3749 0)
(-91.2911 -56.6427 0)
(-92.9571 -74.9396 0)
(-86.2673 -89.8865 0)
(-76.2979 -101.547 0)
(-65.6089 -110.276 0)
(-55.3762 -116.566 0)
(-46.1006 -120.932 0)
(-37.9556 -123.846 0)
(-30.9512 -125.701 0)
(-25.0156 -126.812 0)
(-20.0391 -127.414 0)
(-15.8995 -127.681 0)
(-12.4761 -127.735 0)
(-9.65721 -127.661 0)
(-7.34359 -127.517 0)
(-5.44927 -127.34 0)
(-3.90106 -127.154 0)
(-2.63747 -126.973 0)
(-1.60723 -126.805 0)
(-0.767916 -126.654 0)
(-0.084568 -126.521 0)
(0.471533 -126.406 0)
(0.923909 -126.307 0)
(1.29179 -126.224 0)
(1.5909 -126.153 0)
(1.83402 -126.095 0)
(2.03161 -126.046 0)
(2.19216 -126.005 0)
(2.3226 -125.972 0)
(2.42856 -125.944 0)
(2.51462 -125.922 0)
(2.58451 -125.903 0)
(2.64126 -125.888 0)
(2.68733 -125.875 0)
(2.72472 -125.865 0)
(2.75506 -125.857 0)
(2.77968 -125.85 0)
(2.79964 -125.845 0)
(2.81583 -125.84 0)
(2.82895 -125.837 0)
(2.83958 -125.834 0)
(2.84818 -125.831 0)
(2.85515 -125.829 0)
(2.86078 -125.828 0)
(2.86533 -125.826 0)
(2.869 -125.825 0)
(2.87196 -125.824 0)
(2.87434 -125.823 0)
(2.87626 -125.823 0)
(2.87779 -125.822 0)
(2.87901 -125.822 0)
(2.87997 -125.821 0)
(2.88073 -125.821 0)
(2.8813 -125.825 0)
(2.88176 -125.843 0)
(2.88221 -125.913 0)
(2.8827 -126.107 0)
(2.88305 -126.52 0)
(-33.0237 -14.1599 0)
(-80.3357 -41.5354 0)
(-99.8456 -66.2839 0)
(-100.929 -87.3249 0)
(-92.8904 -104.264 0)
(-81.4236 -117.264 0)
(-69.3786 -126.823 0)
(-58.0339 -133.581 0)
(-47.9002 -138.175 0)
(-39.1215 -141.168 0)
(-31.666 -143.019 0)
(-25.4195 -144.08 0)
(-20.2359 -144.614 0)
(-15.9633 -144.807 0)
(-12.4586 -144.791 0)
(-9.59347 -144.655 0)
(-7.25675 -144.456 0)
(-5.35407 -144.232 0)
(-3.80653 -144.006 0)
(-2.54876 -143.793 0)
(-1.52699 -143.598 0)
(-0.697188 -143.424 0)
(-0.0234095 -143.273 0)
(0.523625 -143.143 0)
(0.967735 -143.032 0)
(1.32828 -142.939 0)
(1.62097 -142.861 0)
(1.85859 -142.795 0)
(2.05149 -142.741 0)
(2.2081 -142.696 0)
(2.33522 -142.659 0)
(2.43842 -142.629 0)
(2.5222 -142.604 0)
(2.59019 -142.584 0)
(2.64538 -142.567 0)
(2.69016 -142.553 0)
(2.7265 -142.542 0)
(2.75598 -142.533 0)
(2.77989 -142.526 0)
(2.79928 -142.52 0)
(2.815 -142.515 0)
(2.82773 -142.511 0)
(2.83805 -142.507 0)
(2.84641 -142.505 0)
(2.85317 -142.503 0)
(2.85863 -142.501 0)
(2.86305 -142.499 0)
(2.86661 -142.498 0)
(2.86948 -142.497 0)
(2.87179 -142.496 0)
(2.87365 -142.495 0)
(2.87513 -142.495 0)
(2.87631 -142.494 0)
(2.87724 -142.494 0)
(2.87797 -142.494 0)
(2.87851 -142.498 0)
(2.87894 -142.52 0)
(2.87936 -142.6 0)
(2.87983 -142.822 0)
(2.88016 -143.294 0)
(-36.8553 -16.6243 0)
(-88.8453 -48.6463 0)
(-109.671 -77.32 0)
(-109.973 -101.357 0)
(-100.29 -120.377 0)
(-87.0516 -134.693 0)
(-73.439 -145.001 0)
(-60.8364 -152.125 0)
(-49.7528 -156.848 0)
(-40.2876 -159.834 0)
(-32.3534 -161.609 0)
(-25.7842 -162.566 0)
(-20.3905 -162.991 0)
(-15.9869 -163.082 0)
(-12.4051 -162.975 0)
(-9.49861 -162.76 0)
(-7.14363 -162.495 0)
(-5.23705 -162.218 0)
(-3.69406 -161.948 0)
(-2.44543 -161.698 0)
(-1.4349 -161.474 0)
(-0.616906 -161.277 0)
(0.0454163 -161.106 0)
(0.581845 -160.961 0)
(1.01643 -160.838 0)
(1.36861 -160.734 0)
(1.65407 -160.648 0)
(1.88551 -160.576 0)
(2.07319 -160.516 0)
(2.2254 -160.467 0)
(2.34886 -160.427 0)
(2.44901 -160.394 0)
(2.53025 -160.366 0)
(2.59616 -160.344 0)
(2.64963 -160.326 0)
(2.69301 -160.311 0)
(2.72819 -160.299 0)
(2.75673 -160.289 0)
(2.77987 -160.281 0)
(2.79863 -160.274 0)
(2.81383 -160.269 0)
(2.82615 -160.265 0)
(2.83613 -160.261 0)
(2.84421 -160.258 0)
(2.85075 -160.256 0)
(2.85603 -160.254 0)
(2.8603 -160.252 0)
(2.86375 -160.251 0)
(2.86652 -160.25 0)
(2.86875 -160.249 0)
(2.87054 -160.248 0)
(2.87197 -160.247 0)
(2.87311 -160.247 0)
(2.874 -160.246 0)
(2.8747 -160.247 0)
(2.87522 -160.252 0)
(2.87561 -160.276 0)
(2.87601 -160.368 0)
(2.87645 -160.62 0)
(2.87675 -161.155 0)
(-41.3143 -19.5143 0)
(-98.676 -56.9352 0)
(-120.896 -90.0585 0)
(-120.154 -117.362 0)
(-108.472 -138.53 0)
(-93.1475 -154.102 0)
(-77.7376 -165.041 0)
(-63.7288 -172.397 0)
(-51.6088 -177.124 0)
(-41.4126 -180 0)
(-32.9811 -181.618 0)
(-26.0854 -182.411 0)
(-20.4853 -182.683 0)
(-15.9577 -182.639 0)
(-12.3066 -182.419 0)
(-9.36641 -182.11 0)
(-6.99999 -181.769 0)
(-5.09532 -181.43 0)
(-3.56174 -181.111 0)
(-2.32622 -180.822 0)
(-1.33017 -180.567 0)
(-0.52658 -180.345 0)
(0.122194 -180.154 0)
(0.646338 -179.993 0)
(1.07006 -179.857 0)
(1.4128 -179.743 0)
(1.69016 -179.648 0)
(1.91473 -179.57 0)
(2.09662 -179.505 0)
(2.24399 -179.452 0)
(2.36342 -179.408 0)
(2.46023 -179.372 0)
(2.53871 -179.342 0)
(2.60235 -179.318 0)
(2.65395 -179.299 0)
(2.6958 -179.283 0)
(2.72973 -179.269 0)
(2.75724 -179.259 0)
(2.77954 -179.25 0)
(2.79762 -179.243 0)
(2.81227 -179.237 0)
(2.82414 -179.233 0)
(2.83375 -179.229 0)
(2.84153 -179.226 0)
(2.84783 -179.223 0)
(2.85292 -179.221 0)
(2.85703 -179.219 0)
(2.86034 -179.218 0)
(2.86301 -179.217 0)
(2.86516 -179.216 0)
(2.86688 -179.215 0)
(2.86825 -179.214 0)
(2.86934 -179.213 0)
(2.8702 -179.213 0)
(2.87086 -179.213 0)
(2.87135 -179.219 0)
(2.87172 -179.247 0)
(2.87208 -179.35 0)
(2.8725 -179.636 0)
(2.87277 -180.238 0)
(-46.501 -22.9415 0)
(-110.008 -66.6932 0)
(-133.663 -104.881 0)
(-131.53 -135.73 0)
(-117.421 -159.074 0)
(-99.655 -175.79 0)
(-82.2031 -187.188 0)
(-66.6412 -194.604 0)
(-53.4085 -199.185 0)
(-42.449 -201.83 0)
(-33.5133 -203.201 0)
(-26.2967 -203.763 0)
(-20.5015 -203.833 0)
(-15.8623 -203.622 0)
(-12.154 -203.265 0)
(-9.19058 -202.847 0)
(-6.82157 -202.42 0)
(-4.92605 -202.012 0)
(-3.4077 -201.639 0)
(-2.18995 -201.308 0)
(-1.21204 -201.019 0)
(-0.425766 -200.77 0)
(0.207168 -200.559 0)
(0.717218 -200.381 0)
(1.12864 -200.232 0)
(1.46081 -200.108 0)
(1.72918 -200.005 0)
(1.94617 -199.92 0)
(2.1217 -199.85 0)
(2.26378 -199.793 0)
(2.37881 -199.745 0)
(2.47199 -199.707 0)
(2.54749 -199.675 0)
(2.60866 -199.649 0)
(2.65825 -199.628 0)
(2.69844 -199.611 0)
(2.73102 -199.597 0)
(2.75742 -199.585 0)
(2.77883 -199.576 0)
(2.79617 -199.569 0)
(2.81023 -199.562 0)
(2.82161 -199.557 0)
(2.83083 -199.553 0)
(2.83829 -199.55 0)
(2.84433 -199.547 0)
(2.8492 -199.545 0)
(2.85314 -199.543 0)
(2.85632 -199.542 0)
(2.85888 -199.54 0)
(2.86094 -199.539 0)
(2.86258 -199.538 0)
(2.8639 -199.538 0)
(2.86494 -199.537 0)
(2.86576 -199.536 0)
(2.86638 -199.537 0)
(2.86684 -199.543 0)
(2.86718 -199.575 0)
(2.86751 -199.692 0)
(2.8679 -200.012 0)
(2.86812 -200.687 0)
(-52.5378 -27.0547 0)
(-123.049 -78.2986 0)
(-148.119 -122.265 0)
(-144.14 -156.93 0)
(-127.094 -182.415 0)
(-106.488 -200.083 0)
(-86.7398 -211.707 0)
(-69.4868 -218.963 0)
(-55.0806 -223.217 0)
(-43.3423 -225.494 0)
(-33.9098 -226.516 0)
(-26.3896 -226.775 0)
(-20.419 -226.594 0)
(-15.6872 -226.181 0)
(-11.9379 -225.665 0)
(-8.9649 -225.122 0)
(-6.60423 -224.598 0)
(-4.72653 -224.115 0)
(-3.2302 -223.684 0)
(-2.03551 -223.307 0)
(-1.07986 -222.983 0)
(-0.31409 -222.707 0)
(0.300527 -222.475 0)
(0.794555 -222.28 0)
(1.19218 -222.118 0)
(1.51259 -221.983 0)
(1.77105 -221.872 0)
(1.97972 -221.781 0)
(2.14833 -221.705 0)
(2.28465 -221.644 0)
(2.39494 -221.593 0)
(2.4842 -221.552 0)
(2.55647 -221.518 0)
(2.615 -221.49 0)
(2.66242 -221.468 0)
(2.70084 -221.449 0)
(2.73197 -221.434 0)
(2.7572 -221.422 0)
(2.77764 -221.412 0)
(2.7942 -221.404 0)
(2.80762 -221.398 0)
(2.81849 -221.393 0)
(2.82729 -221.388 0)
(2.83441 -221.385 0)
(2.84016 -221.382 0)
(2.84482 -221.379 0)
(2.84858 -221.377 0)
(2.85161 -221.376 0)
(2.85405 -221.374 0)
(2.85601 -221.373 0)
(2.85758 -221.372 0)
(2.85883 -221.372 0)
(2.85982 -221.371 0)
(2.86059 -221.37 0)
(2.86118 -221.371 0)
(2.86161 -221.378 0)
(2.86192 -221.414 0)
(2.86222 -221.545 0)
(2.86257 -221.903 0)
(2.86275 -222.656 0)
(-59.5748 -32.0563 0)
(-138.04 -92.2516 0)
(-164.409 -142.816 0)
(-157.994 -181.527 0)
(-137.405 -209.015 0)
(-113.522 -227.342 0)
(-91.2222 -238.876 0)
(-72.1588 -245.699 0)
(-56.5423 -249.413 0)
(-44.0315 -251.165 0)
(-34.1274 -251.729 0)
(-26.3342 -251.609 0)
(-20.2176 -251.127 0)
(-15.4185 -250.478 0)
(-11.6493 -249.779 0)
(-8.68338 -249.097 0)
(-6.34409 -248.466 0)
(-4.49429 -247.902 0)
(-3.0277 -247.408 0)
(-1.86196 -246.984 0)
(-0.933083 -246.623 0)
(-0.191266 -246.319 0)
(0.402389 -246.065 0)
(0.878363 -245.853 0)
(1.26062 -245.678 0)
(1.56807 -245.533 0)
(1.81566 -245.413 0)
(2.01528 -245.315 0)
(2.17638 -245.235 0)
(2.3065 -245.169 0)
(2.41167 -245.115 0)
(2.49673 -245.071 0)
(2.56555 -245.035 0)
(2.62126 -245.006 0)
(2.66637 -244.982 0)
(2.7029 -244.963 0)
(2.73249 -244.947 0)
(2.75647 -244.934 0)
(2.77589 -244.924 0)
(2.79162 -244.915 0)
(2.80436 -244.908 0)
(2.81468 -244.903 0)
(2.82303 -244.898 0)
(2.82979 -244.895 0)
(2.83525 -244.891 0)
(2.83967 -244.889 0)
(2.84324 -244.887 0)
(2.84611 -244.885 0)
(2.84843 -244.884 0)
(2.85029 -244.883 0)
(2.85177 -244.882 0)
(2.85296 -244.881 0)
(2.85389 -244.88 0)
(2.85462 -244.88 0)
(2.85518 -244.88 0)
(2.85557 -244.888 0)
(2.85585 -244.929 0)
(2.85613 -245.074 0)
(2.85644 -245.473 0)
(2.85656 -246.311 0)
(-67.7963 -38.2292 0)
(-155.246 -109.224 0)
(-182.656 -167.305 0)
(-173.045 -210.2 0)
(-148.204 -239.399 0)
(-120.579 -257.953 0)
(-95.4894 -268.984 0)
(-74.5284 -275.039 0)
(-57.6982 -277.968 0)
(-44.4493 -279.022 0)
(-34.12 -279.009 0)
(-26.0996 -278.434 0)
(-19.8767 -277.599 0)
(-15.043 -276.681 0)
(-11.2795 -275.78 0)
(-8.34049 -274.944 0)
(-6.03766 -274.198 0)
(-4.22714 -273.547 0)
(-2.79889 -272.988 0)
(-1.66855 -272.514 0)
(-0.77131 -272.116 0)
(-0.05712 -271.783 0)
(0.51279 -271.506 0)
(0.968591 -271.278 0)
(1.33386 -271.089 0)
(1.6271 -270.934 0)
(1.86287 -270.806 0)
(2.0527 -270.702 0)
(2.20571 -270.616 0)
(2.32917 -270.547 0)
(2.42887 -270.49 0)
(2.50945 -270.443 0)
(2.5746 -270.405 0)
(2.62731 -270.374 0)
(2.66996 -270.349 0)
(2.7045 -270.329 0)
(2.73246 -270.312 0)
(2.75511 -270.299 0)
(2.77345 -270.288 0)
(2.78831 -270.279 0)
(2.80034 -270.272 0)
(2.81008 -270.266 0)
(2.81796 -270.261 0)
(2.82434 -270.257 0)
(2.8295 -270.254 0)
(2.83366 -270.251 0)
(2.83703 -270.249 0)
(2.83974 -270.247 0)
(2.84192 -270.246 0)
(2.84368 -270.244 0)
(2.84508 -270.243 0)
(2.84619 -270.243 0)
(2.84707 -270.242 0)
(2.84776 -270.241 0)
(2.84827 -270.242 0)
(2.84863 -270.251 0)
(2.84888 -270.296 0)
(2.84913 -270.458 0)
(2.8494 -270.901 0)
(2.84947 -271.83 0)
(-77.4286 -45.9805 0)
(-174.952 -130.135 0)
(-202.933 -196.724 0)
(-189.155 -243.765 0)
(-159.257 -274.157 0)
(-127.418 -292.324 0)
(-99.3386 -302.322 0)
(-76.4437 -307.21 0)
(-58.4413 -309.074 0)
(-44.5236 -309.245 0)
(-33.8402 -308.536 0)
(-25.6549 -307.428 0)
(-19.3768 -306.191 0)
(-14.5482 -304.974 0)
(-10.8208 -303.85 0)
(-7.93138 -302.85 0)
(-5.68198 -301.982 0)
(-3.92334 -301.24 0)
(-2.54275 -300.613 0)
(-1.45477 -300.088 0)
(-0.594318 -299.651 0)
(0.0883927 -299.289 0)
(0.631667 -298.99 0)
(1.06512 -298.744 0)
(1.41175 -298.543 0)
(1.68952 -298.377 0)
(1.91251 -298.242 0)
(2.0918 -298.131 0)
(2.23616 -298.041 0)
(2.35251 -297.967 0)
(2.4464 -297.907 0)
(2.52221 -297.858 0)
(2.58348 -297.819 0)
(2.63301 -297.786 0)
(2.67309 -297.76 0)
(2.70552 -297.739 0)
(2.73177 -297.721 0)
(2.75302 -297.707 0)
(2.77023 -297.696 0)
(2.78416 -297.686 0)
(2.79545 -297.679 0)
(2.80458 -297.672 0)
(2.81197 -297.667 0)
(2.81795 -297.663 0)
(2.82278 -297.66 0)
(2.82669 -297.657 0)
(2.82984 -297.655 0)
(2.83239 -297.653 0)
(2.83443 -297.652 0)
(2.83607 -297.65 0)
(2.83738 -297.649 0)
(2.83843 -297.648 0)
(2.83925 -297.648 0)
(2.83988 -297.647 0)
(2.84036 -297.648 0)
(2.84069 -297.659 0)
(2.84092 -297.708 0)
(2.84114 -297.888 0)
(2.84136 -298.379 0)
(2.84135 -299.408 0)
(-88.7494 -55.8761 0)
(-197.432 -156.135 0)
(-225.205 -232.205 0)
(-206.047 -283.067 0)
(-170.208 -313.841 0)
(-133.715 -330.803 0)
(-102.521 -339.12 0)
(-77.7289 -342.388 0)
(-58.6546 -342.888 0)
(-44.1787 -341.985 0)
(-33.2402 -340.462 0)
(-24.9706 -338.748 0)
(-18.6996 -337.067 0)
(-13.923 -335.525 0)
(-10.2663 -334.164 0)
(-7.45207 -332.99 0)
(-5.27476 -331.995 0)
(-3.58163 -331.159 0)
(-2.25868 -330.463 0)
(-1.22035 -329.886 0)
(-0.402082 -329.411 0)
(0.245169 -329.02 0)
(0.758849 -328.699 0)
(1.16774 -328.437 0)
(1.49407 -328.222 0)
(1.75512 -328.047 0)
(1.96437 -327.904 0)
(2.13239 -327.787 0)
(2.26752 -327.692 0)
(2.37634 -327.615 0)
(2.46407 -327.552 0)
(2.53486 -327.501 0)
(2.59203 -327.459 0)
(2.63823 -327.425 0)
(2.67559 -327.398 0)
(2.70582 -327.376 0)
(2.73027 -327.358 0)
(2.75006 -327.343 0)
(2.76609 -327.331 0)
(2.77906 -327.321 0)
(2.78956 -327.313 0)
(2.79806 -327.307 0)
(2.80494 -327.301 0)
(2.8105 -327.297 0)
(2.815 -327.294 0)
(2.81863 -327.291 0)
(2.82156 -327.289 0)
(2.82393 -327.287 0)
(2.82583 -327.285 0)
(2.82736 -327.284 0)
(2.82857 -327.283 0)
(2.82954 -327.282 0)
(2.8303 -327.281 0)
(2.83089 -327.281 0)
(2.83133 -327.282 0)
(2.83163 -327.294 0)
(2.83183 -327.349 0)
(2.83202 -327.548 0)
(2.83219 -328.091 0)
(2.8321 -329.204 0)
(-102.096 -67.3591 0)
(-222.889 -184.978 0)
(-249.232 -270.876 0)
(-223.223 -325.172 0)
(-180.537 -355.587 0)
(-139.051 -370.609 0)
(-104.737 -376.679 0)
(-78.1877 -377.944 0)
(-58.2147 -376.845 0)
(-43.3395 -374.733 0)
(-32.2752 -372.321 0)
(-24.0204 -369.964 0)
(-17.8299 -367.819 0)
(-13.1589 -365.945 0)
(-9.61174 -364.345 0)
(-6.90055 -362.999 0)
(-4.81537 -361.879 0)
(-3.20219 -360.953 0)
(-1.94732 -360.191 0)
(-0.966221 -359.565 0)
(-0.195646 -359.054 0)
(0.412097 -358.636 0)
(0.893198 -358.295 0)
(1.27531 -358.017 0)
(1.57969 -357.791 0)
(1.82277 -357.607 0)
(2.01734 -357.457 0)
(2.17338 -357.335 0)
(2.29874 -357.236 0)
(2.3996 -357.156 0)
(2.48084 -357.091 0)
(2.54636 -357.037 0)
(2.59924 -356.994 0)
(2.64195 -356.959 0)
(2.67648 -356.931 0)
(2.70439 -356.908 0)
(2.72698 -356.889 0)
(2.74525 -356.874 0)
(2.76004 -356.861 0)
(2.77201 -356.851 0)
(2.7817 -356.843 0)
(2.78954 -356.836 0)
(2.79588 -356.831 0)
(2.80101 -356.827 0)
(2.80516 -356.823 0)
(2.80851 -356.82 0)
(2.81122 -356.818 0)
(2.8134 -356.816 0)
(2.81515 -356.814 0)
(2.81655 -356.813 0)
(2.81768 -356.812 0)
(2.81857 -356.811 0)
(2.81927 -356.81 0)
(2.81981 -356.81 0)
(2.82021 -356.812 0)
(2.82048 -356.824 0)
(2.82065 -356.886 0)
(2.82081 -357.106 0)
(2.82093 -357.687 0)
(2.82003 -356.21 0)
(-117.385 -76.1513 0)
(-250.48 -206.198 0)
(-273.792 -300.288 0)
(-239.523 -357.838 0)
(-189.348 -387.899 0)
(-142.81 -400.913 0)
(-105.596 -404.655 0)
(-77.5818 -403.878 0)
(-56.9808 -401.183 0)
(-41.9244 -397.894 0)
(-30.8986 -394.638 0)
(-22.7782 -391.683 0)
(-16.7537 -389.12 0)
(-12.249 -386.952 0)
(-8.85413 -385.145 0)
(-6.27623 -383.654 0)
(-4.30465 -382.432 0)
(-2.78671 -381.433 0)
(-1.61083 -380.618 0)
(-0.694833 -379.956 0)
(0.0223544 -379.417 0)
(0.586443 -378.98 0)
(1.03193 -378.624 0)
(1.38502 -378.336 0)
(1.66577 -378.102 0)
(1.88964 -377.912 0)
(2.06859 -377.758 0)
(2.21194 -377.633 0)
(2.32699 -377.531 0)
(2.41947 -377.449 0)
(2.49391 -377.382 0)
(2.5539 -377.328 0)
(2.60229 -377.284 0)
(2.64136 -377.248 0)
(2.67293 -377.219 0)
(2.69844 -377.196 0)
(2.71908 -377.177 0)
(2.73577 -377.161 0)
(2.74928 -377.149 0)
(2.76021 -377.138 0)
(2.76905 -377.13 0)
(2.77621 -377.123 0)
(2.782 -377.118 0)
(2.78669 -377.113 0)
(2.79047 -377.11 0)
(2.79353 -377.107 0)
(2.796 -377.104 0)
(2.79799 -377.102 0)
(2.79958 -377.101 0)
(2.80087 -377.099 0)
(2.80189 -377.098 0)
(2.8027 -377.098 0)
(2.80334 -377.097 0)
(2.80383 -377.097 0)
(2.80419 -377.099 0)
(2.80443 -377.113 0)
(2.80458 -377.181 0)
(2.80471 -377.415 0)
(2.80432 -375.989 0)
(2.80183 -368.043 0)
(-115.791 -74.916 0)
(-255.952 -203.978 0)
(-284.517 -301.47 0)
(-248.261 -361.943 0)
(-193.661 -392.543 0)
(-143.587 -404.434 0)
(-104.381 -406.508 0)
(-75.5238 -404.168 0)
(-54.7372 -400.238 0)
(-39.812 -396.05 0)
(-29.0426 -392.167 0)
(-21.2074 -388.787 0)
(-15.4531 -385.937 0)
(-11.1866 -383.577 0)
(-7.99408 -381.644 0)
(-5.58441 -380.07 0)
(-3.75097 -378.793 0)
(-2.34563 -377.759 0)
(-1.26115 -376.922 0)
(-0.419142 -376.245 0)
(0.23821 -375.698 0)
(0.753942 -375.256 0)
(1.16035 -374.898 0)
(1.48186 -374.608 0)
(1.73708 -374.373 0)
(1.9403 -374.183 0)
(2.10255 -374.03 0)
(2.23238 -373.905 0)
(2.33647 -373.804 0)
(2.42008 -373.722 0)
(2.48734 -373.656 0)
(2.54151 -373.602 0)
(2.58518 -373.558 0)
(2.62043 -373.523 0)
(2.64889 -373.494 0)
(2.67189 -373.471 0)
(2.69049 -373.452 0)
(2.70553 -373.437 0)
(2.7177 -373.424 0)
(2.72755 -373.414 0)
(2.73551 -373.406 0)
(2.74196 -373.399 0)
(2.74717 -373.394 0)
(2.75139 -373.389 0)
(2.75479 -373.386 0)
(2.75755 -373.383 0)
(2.75977 -373.381 0)
(2.76156 -373.379 0)
(2.763 -373.377 0)
(2.76416 -373.376 0)
(2.76509 -373.375 0)
(2.76582 -373.374 0)
(2.76641 -373.374 0)
(2.76686 -373.374 0)
(2.7672 -373.377 0)
(2.76744 -373.393 0)
(2.7676 -373.465 0)
(2.76755 -372.623 0)
(2.76632 -366.758 0)
(2.75181 -351.847 0)
(-80.3347 -58.85 0)
(-213.773 -168.87 0)
(-263.034 -262.231 0)
(-239.753 -324.267 0)
(-189.029 -356.378 0)
(-139.393 -368.523 0)
(-100.163 -370.095 0)
(-71.5542 -367.069 0)
(-51.2445 -362.549 0)
(-36.875 -357.939 0)
(-26.6407 -353.786 0)
(-19.2762 -350.245 0)
(-13.9168 -347.31 0)
(-9.97331 -344.912 0)
(-7.04127 -342.968 0)
(-4.84015 -341.4 0)
(-3.1731 -340.136 0)
(-1.90035 -339.12 0)
(-0.921532 -338.301 0)
(-0.163813 -337.643 0)
(0.42622 -337.112 0)
(0.888105 -336.684 0)
(1.25137 -336.339 0)
(1.53827 -336.06 0)
(1.76569 -335.835 0)
(1.94654 -335.653 0)
(2.09076 -335.506 0)
(2.20606 -335.386 0)
(2.29843 -335.29 0)
(2.37257 -335.212 0)
(2.43217 -335.149 0)
(2.48014 -335.097 0)
(2.51881 -335.056 0)
(2.55 -335.022 0)
(2.57518 -334.995 0)
(2.59552 -334.973 0)
(2.61197 -334.955 0)
(2.62526 -334.94 0)
(2.63602 -334.928 0)
(2.64472 -334.919 0)
(2.65176 -334.911 0)
(2.65745 -334.905 0)
(2.66206 -334.9 0)
(2.66578 -334.895 0)
(2.6688 -334.892 0)
(2.67123 -334.889 0)
(2.6732 -334.887 0)
(2.67479 -334.885 0)
(2.67607 -334.884 0)
(2.67711 -334.883 0)
(2.67796 -334.882 0)
(2.67864 -334.882 0)