/*--------------------------------*- C++ -*----------------------------------*\
| =========                 |                                                 |
| \\      /  F ield         | OpenFOAM: The Open Source CFD Toolbox           |
|  \\    /   O peration     | Version:  2412                                  |
|   \\  /    A nd           | Website:  www.openfoam.com                      |
|    \\/     M anipulation  |                                                 |
\*---------------------------------------------------------------------------*/
FoamFile
{
    version     2.0;
    format      ascii;
    arch        "LSB;label=32;scalar=64";
    class       volVectorField;
    location    "0.005";
    object      U;
}
// * * * * * * * * * * * * * * * * * * * * * * * * * * * * * * * * * * * * * //

dimensions      [0 1 -1 0 0 0 0];

internalField   nonuniform List<vector> 
1800
(
(-0.767701 -0.172185 0)
(-5.50851 -0.510725 0)
(-7.76341 -0.828138 0)
(-8.25786 -1.11265 0)
(-7.74299 -1.35721 0)
(-6.74108 -1.55947 0)
(-5.55449 -1.72096 0)
(-4.34522 -1.84586 0)
(-3.19808 -1.93971 0)
(-2.15618 -2.00841 0)
(-1.23867 -2.0575 0)
(-0.449952 -2.0918 0)
(0.214819 -2.11527 0)
(0.765947 -2.13099 0)
(1.21652 -2.1413 0)
(1.58054 -2.1479 0)
(1.87166 -2.15203 0)
(2.10246 -2.15451 0)
(2.2841 -2.15595 0)
(2.42612 -2.15673 0)
(2.53656 -2.1571 0)
(2.62204 -2.15724 0)
(2.68793 -2.15724 0)
(2.73854 -2.15718 0)
(2.77729 -2.15709 0)
(2.80689 -2.15699 0)
(2.82944 -2.15689 0)
(2.84659 -2.15681 0)
(2.85961 -2.15673 0)
(2.86948 -2.15667 0)
(2.87695 -2.15662 0)
(2.8826 -2.15658 0)
(2.88687 -2.15655 0)
(2.89009 -2.15653 0)
(2.89252 -2.15651 0)
(2.89435 -2.15649 0)
(2.89573 -2.15648 0)
(2.89676 -2.15647 0)
(2.89754 -2.15646 0)
(2.89813 -2.15646 0)
(2.89857 -2.15645 0)
(2.89891 -2.15645 0)
(2.89916 -2.15645 0)
(2.89934 -2.15645 0)
(2.89948 -2.15645 0)
(2.89959 -2.15644 0)
(2.89967 -2.15644 0)
(2.89973 -2.15644 0)
(2.89977 -2.15644 0)
(2.89981 -2.15644 0)
(2.89983 -2.15644 0)
(2.89985 -2.15644 0)
(2.89986 -2.15644 0)
(2.89987 -2.15646 0)
(2.89988 -2.15653 0)
(2.89988 -2.15685 0)
(2.89988 -2.15794 0)
(2.89988 -2.16095 0)
(2.89987 -2.16762 0)
(2.89987 -2.17974 0)
(-0.858222 -0.523786 0)
(-5.7079 -1.55339 0)
(-8.00132 -2.51821 0)
(-8.48912 -3.38233 0)
(-7.94596 -4.12428 0)
(-6.90863 -4.73714 0)
(-5.68703 -5.22582 0)
(-4.44659 -5.60324 0)
(-3.27342 -5.88645 0)
(-2.21076 -6.09347 0)
(-1.27731 -6.24121 0)
(-0.476714 -6.34431 0)
(0.196667 -6.41476 0)
(0.753888 -6.4619 0)
(1.20868 -6.49277 0)
(1.57556 -6.51252 0)
(1.86859 -6.52482 0)
(2.10063 -6.53223 0)
(2.28306 -6.5365 0)
(2.42557 -6.5388 0)
(2.53631 -6.53989 0)
(2.62196 -6.54029 0)
(2.68794 -6.54028 0)
(2.73859 -6.54008 0)
(2.77736 -6.53979 0)
(2.80696 -6.53949 0)
(2.82951 -6.5392 0)
(2.84665 -6.53894 0)
(2.85965 -6.53871 0)
(2.86951 -6.53853 0)
(2.87697 -6.53838 0)
(2.88261 -6.53826 0)
(2.88687 -6.53816 0)
(2.89009 -6.53809 0)
(2.89251 -6.53803 0)
(2.89434 -6.53798 0)
(2.89572 -6.53795 0)
(2.89675 -6.53792 0)
(2.89753 -6.5379 0)
(2.89812 -6.53788 0)
(2.89856 -6.53787 0)
(2.89889 -6.53786 0)
(2.89914 -6.53785 0)
(2.89933 -6.53785 0)
(2.89947 -6.53785 0)
(2.89957 -6.53784 0)
(2.89965 -6.53784 0)
(2.89971 -6.53784 0)
(2.89976 -6.53784 0)
(2.89979 -6.53784 0)
(2.89981 -6.53784 0)
(2.89983 -6.53784 0)
(2.89985 -6.53784 0)
(2.89986 -6.53789 0)
(2.89986 -6.53816 0)
(2.89986 -6.53926 0)
(2.89986 -6.54285 0)
(2.89985 -6.55237 0)
(2.89985 -6.57293 0)
(2.89985 -6.60963 0)
(-1.03896 -0.891921 0)
(-6.10756 -2.6444 0)
(-8.48014 -4.28473 0)
(-8.95576 -5.75123 0)
(-8.35582 -7.00756 0)
(-7.24678 -8.04259 0)
(-5.95413 -8.86561 0)
(-4.6505 -9.49944 0)
(-3.42466 -9.97369 0)
(-2.32013 -10.3194 0)
(-1.35457 -10.5654 0)
(-0.530125 -10.7367 0)
(0.160508 -10.8534 0)
(0.729915 -10.9313 0)
(1.19313 -10.9822 0)
(1.56572 -11.0146 0)
(1.86252 -11.0347 0)
(2.09703 -11.0468 0)
(2.28102 -11.0537 0)
(2.42451 -11.0574 0)
(2.53583 -11.0592 0)
(2.62181 -11.0597 0)
(2.68797 -11.0597 0)
(2.73871 -11.0593 0)
(2.77751 -11.0588 0)
(2.80711 -11.0583 0)
(2.82964 -11.0578 0)
(2.84675 -11.0573 0)
(2.85974 -11.057 0)
(2.86957 -11.0567 0)
(2.87702 -11.0564 0)
(2.88264 -11.0562 0)
(2.88689 -11.056 0)
(2.89009 -11.0559 0)
(2.8925 -11.0558 0)
(2.89432 -11.0557 0)
(2.89569 -11.0557 0)
(2.89673 -11.0556 0)
(2.8975 -11.0556 0)
(2.89809 -11.0556 0)
(2.89852 -11.0555 0)
(2.89885 -11.0555 0)
(2.8991 -11.0555 0)
(2.89929 -11.0555 0)
(2.89943 -11.0555 0)
(2.89953 -11.0555 0)
(2.89961 -11.0555 0)
(2.89967 -11.0555 0)
(2.89972 -11.0555 0)
(2.89975 -11.0555 0)
(2.89977 -11.0555 0)
(2.89979 -11.0555 0)
(2.8998 -11.0555 0)
(2.89981 -11.0556 0)
(2.89982 -11.0561 0)
(2.89982 -11.0581 0)
(2.89981 -11.0645 0)
(2.89981 -11.0811 0)
(2.8998 -11.1163 0)
(2.8998 -11.1784 0)
(-1.31302 -1.28661 0)
(-6.7148 -3.81294 0)
(-9.20916 -6.17339 0)
(-9.66677 -8.27792 0)
(-8.97974 -10.0746 0)
(-7.76043 -11.5489 0)
(-6.35867 -12.7163 0)
(-4.95831 -13.6114 0)
(-3.65221 -14.2783 0)
(-2.4841 -14.7624 0)
(-1.47003 -15.1055 0)
(-0.609681 -15.3433 0)
(0.106822 -15.5048 0)
(0.694437 -15.6121 0)
(1.1702 -15.6819 0)
(1.55124 -15.7262 0)
(1.85365 -15.7536 0)
(2.09179 -15.7699 0)
(2.27808 -15.7791 0)
(2.42299 -15.7839 0)
(2.53515 -15.7861 0)
(2.62162 -15.7868 0)
(2.68803 -15.7866 0)
(2.73889 -15.786 0)
(2.77773 -15.7853 0)
(2.80733 -15.7845 0)
(2.82983 -15.7838 0)
(2.84691 -15.7831 0)
(2.85986 -15.7826 0)
(2.86966 -15.7822 0)
(2.87707 -15.7818 0)
(2.88267 -15.7815 0)
(2.88689 -15.7813 0)
(2.89008 -15.7811 0)
(2.89248 -15.781 0)
(2.89429 -15.7809 0)
(2.89565 -15.7808 0)
(2.89668 -15.7807 0)
(2.89745 -15.7807 0)
(2.89803 -15.7806 0)
(2.89846 -15.7806 0)
(2.89879 -15.7806 0)
(2.89904 -15.7806 0)
(2.89922 -15.7806 0)
(2.89936 -15.7805 0)
(2.89946 -15.7805 0)
(2.89954 -15.7805 0)
(2.8996 -15.7805 0)
(2.89964 -15.7805 0)
(2.89968 -15.7805 0)
(2.8997 -15.7805 0)
(2.89972 -15.7805 0)
(2.89973 -15.7806 0)
(2.89974 -15.7807 0)
(2.89974 -15.7815 0)
(2.89974 -15.7846 0)
(2.89973 -15.7941 0)
(2.89972 -15.8183 0)
(2.89972 -15.8691 0)
(2.89972 -15.9579 0)
(-1.68667 -1.71899 0)
(-7.5432 -5.09132 0)
(-10.204 -8.23456 0)
(-10.6361 -11.0265 0)
(-9.82823 -13.3989 0)
(-8.45637 -15.3351 0)
(-6.90433 -16.8595 0)
(-5.37153 -18.0215 0)
(-3.95617 -18.8822 0)
(-2.70209 -19.5034 0)
(-1.6228 -19.9413 0)
(-0.714463 -20.2432 0)
(0.0364373 -20.447 0)
(0.64814 -20.5817 0)
(1.14041 -20.6689 0)
(1.53256 -20.7238 0)
(1.84227 -20.7575 0)
(2.08513 -20.7774 0)
(2.27439 -20.7885 0)
(2.42111 -20.7941 0)
(2.53435 -20.7966 0)
(2.62143 -20.7972 0)
(2.68816 -20.7967 0)
(2.73916 -20.7959 0)
(2.77804 -20.7948 0)
(2.80762 -20.7938 0)
(2.83008 -20.7928 0)
(2.84711 -20.792 0)
(2.86001 -20.7913 0)
(2.86976 -20.7907 0)
(2.87713 -20.7902 0)
(2.88269 -20.7898 0)
(2.88689 -20.7895 0)
(2.89005 -20.7893 0)
(2.89244 -20.7891 0)
(2.89423 -20.789 0)
(2.89558 -20.7889 0)
(2.89659 -20.7888 0)
(2.89736 -20.7887 0)
(2.89793 -20.7887 0)
(2.89836 -20.7887 0)
(2.89869 -20.7886 0)
(2.89893 -20.7886 0)
(2.89911 -20.7886 0)
(2.89925 -20.7886 0)
(2.89935 -20.7886 0)
(2.89943 -20.7886 0)
(2.89949 -20.7886 0)
(2.89953 -20.7885 0)
(2.89957 -20.7885 0)
(2.89959 -20.7885 0)
(2.89961 -20.7885 0)
(2.89962 -20.7886 0)
(2.89963 -20.7888 0)
(2.89963 -20.79 0)
(2.89962 -20.7942 0)
(2.89961 -20.8072 0)
(2.8996 -20.8397 0)
(2.89959 -20.9073 0)
(2.89959 -21.0245 0)
(-2.16935 -2.20178 0)
(-8.61267 -6.51626 0)
(-11.4869 -10.5251 0)
(-11.8828 -14.0688 0)
(-10.9151 -17.0618 0)
(-9.34314 -19.488 0)
(-7.59547 -21.3841 0)
(-5.89161 -22.8189 0)
(-4.33632 -23.8738 0)
(-2.973 -24.6296 0)
(-1.81149 -25.1587 0)
(-0.843099 -25.521 0)
(-0.0494502 -25.7639 0)
(0.591996 -25.9233 0)
(1.10453 -26.0256 0)
(1.51021 -26.0896 0)
(1.82879 -26.1284 0)
(2.07732 -26.151 0)
(2.27013 -26.1633 0)
(2.41901 -26.1694 0)
(2.53352 -26.1718 0)
(2.62129 -26.1721 0)
(2.68837 -26.1713 0)
(2.73952 -26.1701 0)
(2.77843 -26.1687 0)
(2.80798 -26.1673 0)
(2.83038 -26.1661 0)
(2.84734 -26.165 0)
(2.86017 -26.1641 0)
(2.86987 -26.1634 0)
(2.87718 -26.1628 0)
(2.8827 -26.1624 0)
(2.88686 -26.162 0)
(2.88999 -26.1617 0)
(2.89235 -26.1615 0)
(2.89412 -26.1613 0)
(2.89546 -26.1612 0)
(2.89646 -26.1611 0)
(2.89722 -26.161 0)
(2.89779 -26.161 0)
(2.89821 -26.1609 0)
(2.89853 -26.1609 0)
(2.89877 -26.1609 0)
(2.89895 -26.1608 0)
(2.89909 -26.1608 0)
(2.89919 -26.1608 0)
(2.89927 -26.1608 0)
(2.89932 -26.1608 0)
(2.89937 -26.1608 0)
(2.8994 -26.1608 0)
(2.89942 -26.1608 0)
(2.89944 -26.1608 0)
(2.89945 -26.1608 0)
(2.89946 -26.1612 0)
(2.89945 -26.1627 0)
(2.89944 -26.1682 0)
(2.89943 -26.1851 0)
(2.89941 -26.2267 0)
(2.8994 -26.3125 0)
(2.8994 -26.4604 0)
(-2.77379 -2.7498 0)
(-9.94985 -8.13044 0)
(-13.0869 -13.1104 0)
(-13.4314 -17.4865 0)
(-12.2574 -21.1551 0)
(-10.4309 -24.104 0)
(-8.43682 -26.3883 0)
(-6.51973 -28.1012 0)
(-4.79179 -29.3492 0)
(-3.29507 -30.2356 0)
(-2.0341 -30.8507 0)
(-0.993712 -31.2683 0)
(-0.149248 -31.546 0)
(0.527271 -31.7266 0)
(1.06352 -31.8414 0)
(1.48492 -31.9124 0)
(1.8137 -31.9549 0)
(2.06871 -31.9791 0)
(2.26554 -31.992 0)
(2.41684 -31.998 0)
(2.53274 -32.0001 0)
(2.62126 -31.9999 0)
(2.68871 -31.9986 0)
(2.73999 -31.9968 0)
(2.77891 -31.995 0)
(2.8084 -31.9933 0)
(2.83072 -31.9917 0)
(2.8476 -31.9904 0)
(2.86034 -31.9894 0)
(2.86995 -31.9885 0)
(2.8772 -31.9878 0)
(2.88266 -31.9872 0)
(2.88678 -31.9868 0)
(2.88987 -31.9865 0)
(2.8922 -31.9862 0)
(2.89396 -31.986 0)
(2.89527 -31.9858 0)
(2.89626 -31.9857 0)
(2.89701 -31.9856 0)
(2.89757 -31.9855 0)
(2.89799 -31.9855 0)
(2.8983 -31.9854 0)
(2.89854 -31.9854 0)
(2.89872 -31.9854 0)
(2.89885 -31.9854 0)
(2.89895 -31.9854 0)
(2.89902 -31.9854 0)
(2.89908 -31.9853 0)
(2.89912 -31.9853 0)
(2.89915 -31.9853 0)
(2.89918 -31.9853 0)
(2.89919 -31.9853 0)
(2.8992 -31.9854 0)
(2.89921 -31.9858 0)
(2.8992 -31.9878 0)
(2.89919 -31.9948 0)
(2.89916 -32.0159 0)
(2.89914 -32.0675 0)
(2.89912 -32.1732 0)
(2.89912 -32.3547 0)
(-3.51644 -3.38075 0)
(-11.5888 -9.98437 0)
(-15.0406 -16.0672 0)
(-15.3116 -21.3741 0)
(-13.8755 -25.7833 0)
(-11.7309 -29.2921 0)
(-9.4331 -31.9813 0)
(-7.25643 -33.9761 0)
(-5.32092 -35.4141 0)
(-3.66569 -36.4248 0)
(-2.2879 -37.1189 0)
(-1.16385 -37.5854 0)
(-0.260935 -37.8923 0)
(0.455542 -38.0898 0)
(1.01856 -38.2138 0)
(1.45753 -38.2894 0)
(1.79762 -38.3338 0)
(2.05974 -38.3585 0)
(2.26092 -38.3711 0)
(2.41479 -38.3764 0)
(2.53214 -38.3777 0)
(2.62142 -38.3767 0)
(2.68921 -38.3747 0)
(2.74059 -38.3724 0)
(2.77948 -38.37 0)
(2.80889 -38.3679 0)
(2.83109 -38.366 0)
(2.84785 -38.3645 0)
(2.86048 -38.3632 0)
(2.87 -38.3622 0)
(2.87717 -38.3613 0)
(2.88256 -38.3607 0)
(2.88662 -38.3602 0)
(2.88967 -38.3598 0)
(2.89197 -38.3595 0)
(2.89369 -38.3592 0)
(2.89499 -38.359 0)
(2.89596 -38.3589 0)
(2.8967 -38.3588 0)
(2.89725 -38.3587 0)
(2.89766 -38.3587 0)
(2.89797 -38.3586 0)
(2.8982 -38.3586 0)
(2.89837 -38.3586 0)
(2.89851 -38.3585 0)
(2.8986 -38.3585 0)
(2.89868 -38.3585 0)
(2.89873 -38.3585 0)
(2.89877 -38.3585 0)
(2.8988 -38.3585 0)
(2.89883 -38.3585 0)
(2.89884 -38.3585 0)
(2.89885 -38.3586 0)
(2.89885 -38.3591 0)
(2.89884 -38.3615 0)
(2.89882 -38.3702 0)
(2.89879 -38.3959 0)
(2.89875 -38.4587 0)
(2.89873 -38.5862 0)
(2.89874 -38.8046 0)
(-4.418 -4.11604 0)
(-13.5719 -12.1388 0)
(-17.3925 -19.4867 0)
(-17.5591 -25.8424 0)
(-15.7924 -31.0671 0)
(-13.2552 -35.1758 0)
(-10.5885 -38.2857 0)
(-8.10117 -40.5637 0)
(-5.92081 -42.1853 0)
(-4.08121 -43.311 0)
(-2.56932 -44.0747 0)
(-1.35043 -44.5818 0)
(-0.382029 -44.9112 0)
(0.378706 -45.1204 0)
(0.97104 -45.2498 0)
(1.42905 -45.3272 0)
(1.78124 -45.3716 0)
(2.05087 -45.3954 0)
(2.25658 -45.4067 0)
(2.41307 -45.4107 0)
(2.53185 -45.4107 0)
(2.62184 -45.4087 0)
(2.68991 -45.4058 0)
(2.74133 -45.4027 0)
(2.78015 -45.3998 0)
(2.80941 -45.3972 0)
(2.83147 -45.395 0)
(2.84807 -45.3931 0)
(2.86057 -45.3916 0)
(2.86997 -45.3904 0)
(2.87705 -45.3894 0)
(2.88236 -45.3887 0)
(2.88636 -45.3881 0)
(2.88936 -45.3876 0)
(2.89161 -45.3873 0)
(2.89331 -45.387 0)
(2.89458 -45.3868 0)
(2.89553 -45.3867 0)
(2.89625 -45.3865 0)
(2.89679 -45.3864 0)
(2.89719 -45.3864 0)
(2.8975 -45.3863 0)
(2.89772 -45.3863 0)
(2.8979 -45.3863 0)
(2.89802 -45.3862 0)
(2.89812 -45.3862 0)
(2.89819 -45.3862 0)
(2.89825 -45.3862 0)
(2.89829 -45.3862 0)
(2.89832 -45.3862 0)
(2.89834 -45.3862 0)
(2.89835 -45.3862 0)
(2.89836 -45.3863 0)
(2.89835 -45.387 0)
(2.89834 -45.3899 0)
(2.89831 -45.4005 0)
(2.89827 -45.4314 0)
(2.89823 -45.5064 0)
(2.89819 -45.6582 0)
(2.8982 -45.9174 0)
(-5.50413 -4.98205 0)
(-15.9509 -14.668 0)
(-20.1961 -23.4787 0)
(-20.215 -31.0224 0)
(-18.0335 -37.1467 0)
(-15.016 -41.8965 0)
(-11.9059 -45.4399 0)
(-9.05173 -47.9976 0)
(-6.58699 -49.7921 0)
(-4.53664 -51.02 0)
(-2.87376 -51.8412 0)
(-1.54963 -52.3787 0)
(-0.50955 -52.7226 0)
(0.298994 -52.9373 0)
(0.922584 -53.0676 0)
(1.40061 -53.1437 0)
(1.76535 -53.1858 0)
(2.04263 -53.2071 0)
(2.25286 -53.2161 0)
(2.41189 -53.2181 0)
(2.53199 -53.2164 0)
(2.62258 -53.213 0)
(2.69084 -53.209 0)
(2.74222 -53.2051 0)
(2.78089 -53.2015 0)
(2.80996 -53.1983 0)
(2.83181 -53.1957 0)
(2.84823 -53.1936 0)
(2.86057 -53.1918 0)
(2.86984 -53.1904 0)
(2.87679 -53.1893 0)
(2.88202 -53.1885 0)
(2.88594 -53.1878 0)
(2.88888 -53.1873 0)
(2.89109 -53.1869 0)
(2.89275 -53.1866 0)
(2.89399 -53.1864 0)
(2.89493 -53.1862 0)
(2.89563 -53.1861 0)
(2.89615 -53.186 0)
(2.89655 -53.1859 0)
(2.89684 -53.1858 0)
(2.89707 -53.1858 0)
(2.89723 -53.1857 0)
(2.89736 -53.1857 0)
(2.89745 -53.1857 0)
(2.89752 -53.1857 0)
(2.89757 -53.1857 0)
(2.89761 -53.1857 0)
(2.89764 -53.1856 0)
(2.89766 -53.1856 0)
(2.89767 -53.1857 0)
(2.89768 -53.1858 0)
(2.89767 -53.1866 0)
(2.89765 -53.1902 0)
(2.89762 -53.2027 0)
(2.89756 -53.2394 0)
(2.89751 -53.3281 0)
(2.89747 -53.507 0)
(2.89747 -53.8117 0)
(-6.80642 -6.01174 0)
(-18.7886 -17.6637 0)
(-23.5144 -28.1768 0)
(-23.3259 -37.0705 0)
(-20.6255 -44.1859 0)
(-17.0239 -49.6165 0)
(-13.386 -53.6005 0)
(-10.1034 -56.428 0)
(-7.31285 -58.3787 0)
(-5.02535 -59.6914 0)
(-3.19549 -60.5548 0)
(-1.75685 -61.1101 0)
(-0.639994 -61.459 0)
(0.218969 -61.6724 0)
(0.875011 -61.7985 0)
(1.37349 -61.8697 0)
(1.7508 -61.9071 0)
(2.0356 -61.9243 0)
(2.25013 -61.9298 0)
(2.41148 -61.929 0)
(2.53271 -61.9251 0)
(2.62373 -61.92 0)
(2.69203 -61.9147 0)
(2.74326 -61.9098 0)
(2.78168 -61.9054 0)
(2.81049 -61.9017 0)
(2.83209 -61.8986 0)
(2.84829 -61.8961 0)
(2.86043 -61.8942 0)
(2.86953 -61.8926 0)
(2.87636 -61.8913 0)
(2.88148 -61.8904 0)
(2.88531 -61.8896 0)
(2.88819 -61.8891 0)
(2.89035 -61.8886 0)
(2.89197 -61.8883 0)
(2.89318 -61.888 0)
(2.89409 -61.8878 0)
(2.89477 -61.8877 0)
(2.89528 -61.8876 0)
(2.89567 -61.8875 0)
(2.89596 -61.8874 0)
(2.89617 -61.8874 0)
(2.89633 -61.8873 0)
(2.89646 -61.8873 0)
(2.89655 -61.8873 0)
(2.89661 -61.8873 0)
(2.89667 -61.8872 0)
(2.8967 -61.8872 0)
(2.89673 -61.8872 0)
(2.89675 -61.8872 0)
(2.89676 -61.8872 0)
(2.89676 -61.8874 0)
(2.89675 -61.8884 0)
(2.89673 -61.8926 0)
(2.89668 -61.9074 0)
(2.89662 -61.9506 0)
(2.89655 -62.0545 0)
(2.89649 -62.2636 0)
(2.89649 -62.6193 0)
(-8.36363 -7.24689 0)
(-22.1604 -21.2409 0)
(-27.4206 -33.7451 0)
(-26.943 -44.1742 0)
(-23.5953 -52.3773 0)
(-19.2871 -58.5226 0)
(-15.0257 -62.9449 0)
(-11.2483 -66.0231 0)
(-8.08911 -68.1059 0)
(-5.53878 -69.4806 0)
(-3.52741 -70.367 0)
(-1.96659 -70.9253 0)
(-0.769312 -71.2681 0)
(0.141524 -71.4721 0)
(0.830337 -71.5886 0)
(1.34905 -71.6511 0)
(1.73852 -71.6811 0)
(2.03036 -71.6924 0)
(2.24876 -71.6933 0)
(2.41207 -71.689 0)
(2.53413 -71.6824 0)
(2.62534 -71.6752 0)
(2.6935 -71.6684 0)
(2.74443 -71.6623 0)
(2.7825 -71.657 0)
(2.81097 -71.6527 0)
(2.83225 -71.6492 0)
(2.84818 -71.6463 0)
(2.86009 -71.6441 0)
(2.869 -71.6423 0)
(2.87568 -71.6409 0)
(2.88068 -71.6398 0)
(2.88442 -71.639 0)
(2.88722 -71.6384 0)
(2.88932 -71.6379 0)
(2.89089 -71.6375 0)
(2.89207 -71.6372 0)
(2.89296 -71.637 0)
(2.89362 -71.6368 0)
(2.89411 -71.6367 0)
(2.89449 -71.6366 0)
(2.89476 -71.6365 0)
(2.89497 -71.6365 0)
(2.89513 -71.6364 0)
(2.89525 -71.6364 0)
(2.89534 -71.6364 0)
(2.8954 -71.6364 0)
(2.89545 -71.6364 0)
(2.89549 -71.6363 0)
(2.89551 -71.6363 0)
(2.89553 -71.6363 0)
(2.89554 -71.6363 0)
(2.89554 -71.6365 0)
(2.89552 -71.6377 0)
(2.89549 -71.6427 0)
(2.89544 -71.6601 0)
(2.89536 -71.7105 0)
(2.89528 -71.8315 0)
(2.8952 -72.0746 0)
(2.8952 -72.4874 0)
(-10.2232 -8.74124 0)
(-26.1563 -25.5452 0)
(-31.9985 -40.3867 0)
(-31.1208 -52.5603 0)
(-26.9673 -61.9474 0)
(-21.8088 -68.83 0)
(-16.8169 -73.6743 0)
(-12.4737 -76.9715 0)
(-8.90317 -79.1529 0)
(-6.06606 -80.5602 0)
(-3.86095 -81.4464 0)
(-2.17249 -81.9903 0)
(-0.892917 -82.3145 0)
(0.0698642 -82.5003 0)
(0.790749 -82.6011 0)
(1.32876 -82.6507 0)
(1.72946 -82.6707 0)
(2.02754 -82.6743 0)
(2.24915 -82.6694 0)
(2.41389 -82.6607 0)
(2.53637 -82.6508 0)
(2.62746 -82.6413 0)
(2.69524 -82.6327 0)
(2.74571 -82.6253 0)
(2.7833 -82.6191 0)
(2.81133 -82.6141 0)
(2.83223 -82.61 0)
(2.84783 -82.6068 0)
(2.85947 -82.6043 0)
(2.86817 -82.6023 0)
(2.87467 -82.6007 0)
(2.87953 -82.5996 0)
(2.88317 -82.5986 0)
(2.88589 -82.5979 0)
(2.88792 -82.5974 0)
(2.88945 -82.597 0)
(2.89059 -82.5967 0)
(2.89144 -82.5965 0)
(2.89208 -82.5963 0)
(2.89256 -82.5961 0)
(2.89292 -82.596 0)
(2.89319 -82.596 0)
(2.89339 -82.5959 0)
(2.89354 -82.5959 0)
(2.89366 -82.5958 0)
(2.89374 -82.5958 0)
(2.8938 -82.5958 0)
(2.89385 -82.5958 0)
(2.89389 -82.5958 0)
(2.89391 -82.5957 0)
(2.89392 -82.5957 0)
(2.89393 -82.5957 0)
(2.89393 -82.596 0)
(2.89391 -82.5973 0)
(2.89387 -82.6031 0)
(2.8938 -82.6234 0)
(2.89371 -82.6819 0)
(2.89362 -82.8222 0)
(2.89352 -83.1036 0)
(2.89351 -83.5808 0)
(-12.4433 -10.5649 0)
(-30.8826 -30.764 0)
(-37.3415 -48.3573 0)
(-35.9148 -62.5057 0)
(-30.7605 -73.1657 0)
(-24.5846 -80.7895 0)
(-18.7441 -86.0196 0)
(-13.7617 -89.4883 0)
(-9.73841 -91.7235 0)
(-6.59374 -93.1267 0)
(-4.18596 -93.9848 0)
(-2.3672 -94.4944 0)
(-1.0057 -94.7859 0)
(0.00746679 -94.944 0)
(0.758567 -95.0226 0)
(1.31413 -95.0552 0)
(1.7246 -95.0623 0)
(2.02774 -95.0562 0)
(2.25165 -95.0443 0)
(2.41713 -95.0305 0)
(2.53952 -95.0169 0)
(2.63012 -95.0046 0)
(2.69725 -94.9941 0)
(2.74705 -94.9853 0)
(2.78402 -94.978 0)
(2.81149 -94.9722 0)
(2.83193 -94.9676 0)
(2.84715 -94.964 0)
(2.85848 -94.9612 0)
(2.86694 -94.959 0)
(2.87324 -94.9573 0)
(2.87795 -94.956 0)
(2.88147 -94.955 0)
(2.88409 -94.9543 0)
(2.88606 -94.9537 0)
(2.88753 -94.9532 0)
(2.88863 -94.9529 0)
(2.88945 -94.9527 0)
(2.89007 -94.9525 0)
(2.89053 -94.9523 0)
(2.89087 -94.9522 0)
(2.89113 -94.9521 0)
(2.89133 -94.9521 0)
(2.89147 -94.952 0)
(2.89158 -94.952 0)
(2.89166 -94.952 0)
(2.89172 -94.9519 0)
(2.89177 -94.9519 0)
(2.8918 -94.9519 0)
(2.89182 -94.9519 0)
(2.89183 -94.9519 0)
(2.89184 -94.9519 0)
(2.89183 -94.9522 0)
(2.89181 -94.9537 0)
(2.89176 -94.9605 0)
(2.89169 -94.984 0)
(2.89158 -95.0517 0)
(2.89147 -95.2137 0)
(2.89136 -95.5381 0)
(2.89132 -96.0946 0)
(-15.0949 -12.8121 0)
(-36.4637 -37.147 0)
(-43.5515 -57.9905 0)
(-41.3763 -74.3645 0)
(-34.9836 -86.3704 0)
(-27.5984 -94.7111 0)
(-20.782 -100.265 0)
(-15.0868 -103.837 0)
(-10.5735 -106.068 0)
(-7.10548 -107.423 0)
(-4.49061 -108.22 0)
(-2.54251 -108.673 0)
(-1.10208 -108.917 0)
(-0.0419709 -109.037 0)
(0.736201 -109.087 0)
(1.30672 -109.098 0)
(1.72489 -109.089 0)
(2.03154 -109.072 0)
(2.2566 -109.052 0)
(2.42197 -109.032 0)
(2.54366 -109.014 0)
(2.63332 -108.999 0)
(2.69948 -108.986 0)
(2.74838 -108.976 0)
(2.78456 -108.968 0)
(2.81137 -108.961 0)
(2.83126 -108.956 0)
(2.84603 -108.952 0)
(2.85701 -108.949 0)
(2.86519 -108.946 0)
(2.87128 -108.944 0)
(2.87581 -108.943 0)
(2.8792 -108.942 0)
(2.88173 -108.941 0)
(2.88361 -108.94 0)
(2.88502 -108.94 0)
(2.88608 -108.94 0)
(2.88687 -108.939 0)
(2.88746 -108.939 0)
(2.8879 -108.939 0)
(2.88823 -108.939 0)
(2.88848 -108.939 0)
(2.88866 -108.939 0)
(2.8888 -108.939 0)
(2.8889 -108.939 0)
(2.88898 -108.939 0)
(2.88904 -108.939 0)
(2.88908 -108.939 0)
(2.88911 -108.938 0)
(2.88913 -108.938 0)
(2.88915 -108.938 0)
(2.88915 -108.938 0)
(2.88914 -108.939 0)
(2.88911 -108.941 0)
(2.88906 -108.948 0)
(2.88897 -108.976 0)
(2.88885 -109.054 0)
(2.88872 -109.24 0)
(2.88858 -109.62 0)
(2.88852 -110.294 0)
(-18.2651 -15.6151 0)
(-43.043 -45.039 0)
(-50.7336 -69.7397 0)
(-47.5457 -88.6108 0)
(-39.6278 -102.011 0)
(-30.8177 -111.007 0)
(-22.8926 -116.79 0)
(-16.4151 -120.376 0)
(-11.3819 -122.53 0)
(-7.58192 -123.783 0)
(-4.76148 -124.484 0)
(-2.68937 -124.855 0)
(-1.17613 -125.034 0)
(-0.0746145 -125.106 0)
(0.726085 -125.12 0)
(1.30803 -125.106 0)
(1.73127 -125.078 0)
(2.03948 -125.048 0)
(2.26429 -125.019 0)
(2.42855 -124.992 0)
(2.54881 -124.97 0)
(2.63703 -124.951 0)
(2.70186 -124.936 0)
(2.7496 -124.924 0)
(2.78481 -124.915 0)
(2.81083 -124.907 0)
(2.83008 -124.902 0)
(2.84434 -124.897 0)
(2.85493 -124.894 0)
(2.86279 -124.891 0)
(2.86864 -124.889 0)
(2.87299 -124.887 0)
(2.87623 -124.886 0)
(2.87865 -124.885 0)
(2.88045 -124.885 0)
(2.8818 -124.884 0)
(2.8828 -124.884 0)
(2.88355 -124.884 0)
(2.88411 -124.883 0)
(2.88453 -124.883 0)
(2.88485 -124.883 0)
(2.88508 -124.883 0)
(2.88526 -124.883 0)
(2.88539 -124.883 0)
(2.88549 -124.883 0)
(2.88557 -124.883 0)
(2.88562 -124.883 0)
(2.88566 -124.883 0)
(2.88569 -124.883 0)
(2.88571 -124.883 0)
(2.88572 -124.883 0)
(2.88572 -124.883 0)
(2.8857 -124.883 0)
(2.88567 -124.885 0)
(2.88561 -124.894 0)
(2.88552 -124.926 0)
(2.88539 -125.015 0)
(2.88524 -125.235 0)
(2.88507 -125.705 0)
(2.88497 -126.556 0)
(-22.06 -19.1573 0)
(-50.7804 -54.8977 0)
(-58.987 -84.1924 0)
(-54.4407 -105.853 0)
(-44.6576 -120.663 0)
(-34.1869 -130.211 0)
(-25.0218 -136.092 0)
(-17.7027 -139.577 0)
(-12.1312 -141.569 0)
(-8.00063 -142.66 0)
(-4.98361 -143.223 0)
(-2.7981 -143.486 0)
(-1.22168 -143.585 0)
(-0.0866003 -143.599 0)
(0.7306 -143.571 0)
(1.3195 -143.526 0)
(1.74458 -143.478 0)
(2.05204 -143.433 0)
(2.27494 -143.393 0)
(2.43695 -143.36 0)
(2.55498 -143.333 0)
(2.64118 -143.31 0)
(2.70429 -143.293 0)
(2.7506 -143.279 0)
(2.78464 -143.269 0)
(2.80973 -143.26 0)
(2.82824 -143.254 0)
(2.84193 -143.249 0)
(2.85206 -143.245 0)
(2.85958 -143.242 0)
(2.86516 -143.24 0)
(2.8693 -143.239 0)
(2.87239 -143.237 0)
(2.87469 -143.236 0)
(2.8764 -143.236 0)
(2.87768 -143.235 0)
(2.87863 -143.235 0)
(2.87934 -143.234 0)
(2.87988 -143.234 0)
(2.88027 -143.234 0)
(2.88057 -143.234 0)
(2.88079 -143.234 0)
(2.88096 -143.234 0)
(2.88108 -143.234 0)
(2.88118 -143.234 0)
(2.88125 -143.234 0)
(2.8813 -143.234 0)
(2.88134 -143.234 0)
(2.88136 -143.234 0)
(2.88138 -143.233 0)
(2.88139 -143.233 0)
(2.88139 -143.234 0)
(2.88137 -143.234 0)
(2.88133 -143.236 0)
(2.88127 -143.247 0)
(2.88117 -143.283 0)
(2.88102 -143.389 0)
(2.88086 -143.667 0)
(2.88066 -144.273 0)
(2.8805 -145.34 0)
(-26.608 -23.6596 0)
(-59.846 -67.2332 0)
(-68.3874 -101.976 0)
(-62.0368 -126.724 0)
(-49.9964 -142.922 0)
(-37.62 -152.872 0)
(-27.0957 -158.688 0)
(-18.8943 -161.939 0)
(-12.7832 -163.671 0)
(-8.33643 -164.535 0)
(-5.14094 -164.92 0)
(-2.85867 -165.05 0)
(-1.23259 -165.052 0)
(-0.0742408 -164.997 0)
(0.751915 -164.921 0)
(1.34237 -164.844 0)
(1.76545 -164.773 0)
(2.0695 -164.712 0)
(2.28865 -164.661 0)
(2.4471 -164.62 0)
(2.56201 -164.587 0)
(2.64559 -164.562 0)
(2.70654 -164.542 0)
(2.75112 -164.526 0)
(2.78379 -164.514 0)
(2.8078 -164.505 0)
(2.82548 -164.498 0)
(2.83852 -164.493 0)
(2.84815 -164.489 0)
(2.85529 -164.486 0)
(2.86058 -164.483 0)
(2.8645 -164.482 0)
(2.86742 -164.48 0)
(2.86959 -164.479 0)
(2.8712 -164.479 0)
(2.87241 -164.478 0)
(2.8733 -164.478 0)
(2.87397 -164.477 0)
(2.87447 -164.477 0)
(2.87485 -164.477 0)
(2.87513 -164.477 0)
(2.87534 -164.477 0)
(2.87549 -164.476 0)
(2.87561 -164.476 0)
(2.8757 -164.476 0)
(2.87576 -164.476 0)
(2.87581 -164.476 0)
(2.87585 -164.476 0)
(2.87587 -164.476 0)
(2.87589 -164.476 0)
(2.87589 -164.476 0)
(2.87589 -164.476 0)
(2.87587 -164.477 0)
(2.87583 -164.48 0)
(2.87576 -164.492 0)
(2.87565 -164.535 0)
(2.8755 -164.672 0)
(2.87532 -165.038 0)
(2.87508 -165.796 0)
(2.87478 -167.005 0)
(-32.0379 -29.314 0)
(-70.3452 -82.4191 0)
(-78.9085 -123.49 0)
(-70.2124 -151.581 0)
(-55.4953 -169.09 0)
(-40.9848 -179.255 0)
(-29.0146 -184.819 0)
(-19.9213 -187.691 0)
(-13.2933 -189.064 0)
(-8.56165 -189.638 0)
(-5.21676 -189.806 0)
(-2.86124 -189.779 0)
(-1.20322 -189.672 0)
(-0.0344389 -189.541 0)
(0.791594 -189.413 0)
(1.37727 -189.3 0)
(1.79401 -189.204 0)
(2.09163 -189.127 0)
(2.30498 -189.065 0)
(2.45847 -189.016 0)
(2.5693 -188.978 0)
(2.64959 -188.949 0)
(2.70793 -188.926 0)
(2.75047 -188.909 0)
(2.78156 -188.896 0)
(2.80434 -188.886 0)
(2.82108 -188.878 0)
(2.8334 -188.872 0)
(2.84249 -188.868 0)
(2.8492 -188.865 0)
(2.85418 -188.862 0)
(2.85786 -188.86 0)
(2.8606 -188.859 0)
(2.86263 -188.858 0)
(2.86414 -188.857 0)
(2.86527 -188.857 0)
(2.8661 -188.856 0)
(2.86673 -188.856 0)
(2.8672 -188.856 0)
(2.86755 -188.855 0)
(2.86781 -188.855 0)
(2.868 -188.855 0)
(2.86815 -188.855 0)
(2.86826 -188.855 0)
(2.86834 -188.855 0)
(2.8684 -188.855 0)
(2.86844 -188.855 0)
(2.86848 -188.855 0)
(2.8685 -188.855 0)
(2.86851 -188.855 0)
(2.86852 -188.855 0)
(2.86851 -188.855 0)
(2.86849 -188.855 0)
(2.86845 -188.859 0)
(2.86838 -188.873 0)
(2.86826 -188.93 0)
(2.8681 -189.114 0)
(2.86791 -189.569 0)
(2.86756 -190.391 0)
(2.86676 -191.476 0)
(-38.7159 -36.1681 0)
(-82.7021 -100.402 0)
(-90.6446 -148.508 0)
(-78.8288 -180.055 0)
(-60.9532 -198.719 0)
(-44.1071 -208.877 0)
(-30.6536 -213.997 0)
(-20.7024 -216.352 0)
(-13.6116 -217.278 0)
(-8.64625 -217.509 0)
(-5.19335 -217.429 0)
(-2.79545 -217.229 0)
(-1.12751 -217.004 0)
(0.0363637 -216.792 0)
(0.851752 -216.61 0)
(1.4255 -216.46 0)
(1.83103 -216.34 0)
(2.11896 -216.246 0)
(2.32428 -216.172 0)
(2.47133 -216.116 0)
(2.57705 -216.073 0)
(2.65336 -216.04 0)
(2.70864 -216.015 0)
(2.74881 -215.996 0)
(2.77809 -215.982 0)
(2.7995 -215.971 0)
(2.81519 -215.963 0)
(2.82672 -215.957 0)
(2.83521 -215.953 0)
(2.84147 -215.949 0)
(2.8461 -215.947 0)
(2.84953 -215.945 0)
(2.85207 -215.943 0)
(2.85396 -215.942 0)
(2.85536 -215.941 0)
(2.8564 -215.941 0)
(2.85718 -215.94 0)
(2.85776 -215.94 0)
(2.85819 -215.939 0)
(2.85851 -215.939 0)
(2.85875 -215.939 0)
(2.85893 -215.939 0)
(2.85907 -215.939 0)
(2.85917 -215.939 0)
(2.85924 -215.939 0)
(2.8593 -215.939 0)
(2.85934 -215.939 0)
(2.85937 -215.939 0)
(2.85939 -215.939 0)
(2.8594 -215.939 0)
(2.85941 -215.939 0)
(2.8594 -215.939 0)
(2.85938 -215.94 0)
(2.85934 -215.944 0)
(2.85926 -215.963 0)
(2.85915 -216.04 0)
(2.85898 -216.268 0)
(2.85874 -216.741 0)
(2.85804 -217.393 0)
(2.85814 -217.9 0)
(-47.1928 -44.0146 0)
(-97.4921 -120.44 0)
(-103.739 -175.821 0)
(-87.7255 -210.655 0)
(-66.1282 -230.196 0)
(-46.781 -240.1 0)
(-31.8699 -244.599 0)
(-21.1478 -246.325 0)
(-13.6838 -246.739 0)
(-8.55794 -246.594 0)
(-5.05105 -246.249 0)
(-2.64872 -245.871 0)
(-0.996842 -245.525 0)
(0.144627 -245.233 0)
(0.937666 -244.998 0)
(1.49168 -244.813 0)
(1.88082 -244.67 0)
(2.15559 -244.56 0)
(2.35059 -244.477 0)
(2.48963 -244.414 0)
(2.58922 -244.366 0)
(2.66085 -244.33 0)
(2.71257 -244.303 0)
(2.75006 -244.283 0)
(2.77732 -244.268 0)
(2.7972 -244.256 0)
(2.81175 -244.248 0)
(2.82242 -244.241 0)
(2.83026 -244.237 0)
(2.83604 -244.233 0)
(2.8403 -244.23 0)
(2.84345 -244.228 0)
(2.84579 -244.227 0)
(2.84752 -244.226 0)
(2.84881 -244.225 0)
(2.84976 -244.224 0)
(2.85048 -244.224 0)
(2.85101 -244.223 0)
(2.8514 -244.223 0)
(2.8517 -244.223 0)
(2.85192 -244.223 0)
(2.85208 -244.222 0)
(2.8522 -244.222 0)
(2.85229 -244.222 0)
(2.85236 -244.222 0)
(2.85241 -244.222 0)
(2.85245 -244.222 0)
(2.85248 -244.222 0)
(2.8525 -244.222 0)
(2.85251 -244.222 0)
(2.85251 -244.222 0)
(2.8525 -244.222 0)
(2.85248 -244.223 0)
(2.85243 -244.229 0)
(2.85236 -244.255 0)
(2.85224 -244.35 0)
(2.85207 -244.581 0)
(2.85166 -244.916 0)
(2.85175 -245.054 0)
(2.85498 -244.442 0)
(-57.5209 -52.3573 0)
(-114.381 -141.026 0)
(-117.69 -203.143 0)
(-96.4184 -240.655 0)
(-70.6411 -260.622 0)
(-48.7478 -270.001 0)
(-32.5032 -273.735 0)
(-21.1632 -274.765 0)
(-13.4556 -274.643 0)
(-8.26478 -274.116 0)
(-4.77003 -273.513 0)
(-2.4076 -272.963 0)
(-0.801015 -272.505 0)
(0.298898 -272.14 0)
(1.05707 -271.858 0)
(1.58317 -271.642 0)
(1.95055 -271.479 0)
(2.20864 -271.356 0)
(2.39097 -271.264 0)
(2.52047 -271.196 0)
(2.61289 -271.144 0)
(2.67916 -271.106 0)
(2.72688 -271.078 0)
(2.76137 -271.056 0)
(2.7864 -271.04 0)
(2.80461 -271.029 0)
(2.81791 -271.02 0)
(2.82765 -271.013 0)
(2.8348 -271.008 0)
(2.84006 -271.005 0)
(2.84394 -271.002 0)
(2.8468 -271 0)
(2.84892 -270.998 0)
(2.85049 -270.997 0)
(2.85165 -270.996 0)
(2.85252 -270.995 0)
(2.85316 -270.995 0)
(2.85364 -270.995 0)
(2.854 -270.994 0)
(2.85427 -270.994 0)
(2.85446 -270.994 0)
(2.85461 -270.994 0)
(2.85472 -270.994 0)
(2.85481 -270.994 0)
(2.85487 -270.994 0)
(2.85491 -270.994 0)
(2.85495 -270.994 0)
(2.85497 -270.994 0)
(2.85499 -270.994 0)
(2.855 -270.994 0)
(2.855 -270.994 0)
(2.85499 -270.994 0)
(2.85496 -270.995 0)
(2.85492 -271.003 0)
(2.85485 -271.036 0)
(2.85473 -271.131 0)
(2.8545 -271.283 0)
(2.85453 -271.278 0)
(2.85682 -270.554 0)
(2.86313 -268.386 0)
(-68.6937 -60.5019 0)
(-131.289 -160.083 0)
(-130.709 -227.354 0)
(-103.758 -266.377 0)
(-73.84 -286.12 0)
(-49.6575 -294.681 0)
(-32.3701 -297.552 0)
(-20.6543 -297.876 0)
(-12.8786 -297.241 0)
(-7.74164 -296.365 0)
(-4.3366 -295.532 0)
(-2.06389 -294.835 0)
(-0.534406 -294.283 0)
(0.503651 -293.86 0)
(1.21397 -293.54 0)
(1.7038 -293.301 0)
(2.04402 -293.124 0)
(2.28192 -292.992 0)
(2.4493 -292.894 0)
(2.56775 -292.822 0)
(2.65202 -292.769 0)
(2.71227 -292.729 0)
(2.75554 -292.7 0)
(2.78675 -292.678 0)
(2.80934 -292.662 0)
(2.82575 -292.65 0)
(2.83772 -292.641 0)
(2.84647 -292.634 0)
(2.85288 -292.629 0)
(2.85759 -292.626 0)
(2.86106 -292.623 0)
(2.86362 -292.621 0)
(2.86551 -292.619 0)
(2.86691 -292.618 0)
(2.86795 -292.617 0)
(2.86872 -292.617 0)
(2.8693 -292.616 0)
(2.86972 -292.616 0)
(2.87004 -292.616 0)
(2.87028 -292.615 0)
(2.87046 -292.615 0)
(2.87059 -292.615 0)
(2.87069 -292.615 0)
(2.87076 -292.615 0)
(2.87081 -292.615 0)
(2.87086 -292.615 0)
(2.87089 -292.615 0)
(2.87091 -292.615 0)
(2.87092 -292.615 0)
(2.87093 -292.615 0)
(2.87093 -292.615 0)
(2.87092 -292.615 0)
(2.87089 -292.617 0)
(2.87085 -292.627 0)
(2.87077 -292.66 0)
(2.87064 -292.722 0)
(2.87058 -292.703 0)
(2.87171 -292.187 0)
(2.87576 -290.392 0)
(2.88178 -286.506 0)
(-78.8959 -67.7488 0)