/*--------------------------------*- C++ -*----------------------------------*\
| =========                 |                                                 |
| \\      /  F ield         | OpenFOAM: The Open Source CFD Toolbox           |
|  \\    /   O peration     | Version:  2412                                  |
|   \\  /    A nd           | Website:  www.openfoam.com                      |
|    \\/     M anipulation  |                                                 |
\*---------------------------------------------------------------------------*/
FoamFile
{
    version     2.0;
    format      ascii;
    arch        "LSB;label=32;scalar=64";
    class       volScalarField;
    location    "0.0134371";
    object      p;
}
// * * * * * * * * * * * * * * * * * * * * * * * * * * * * * * * * * * * * * //

dimensions      [1 -1 -2 0 0 0 0];

internalField   nonuniform List<scalar> 
100
(
100000
100000
100000
100000
99995.8
99819.6
98292.4
94521.3
90334.8
87038.7
84504.1
82357.9
80378.1
78470
76602.6
74769.5
72971
71207.9
69479.6
67787.6
66125.1
64506.2
62895.3
61373.8
59770
58435.3
56716.9
55747.8
53721.7
53231.7
50905.4
50665.6
48452.2
48065.7
46181
45584.4
44013.6
43176.5
41873.9
40942
39799.7
38786.3
37768.1
36806
35848.5
34946.4
34167.3
33373.9
32484.1
31886.9
31614.3
31782.7
32045.1
31615.2
31293.3
31703.7
32500.9
32529.1
31134.5
30880.3
31786.4
32746.5
32656.5
31036.2
30857.9
31700.9
32744.4
32683.1
31590
30970
31361.8
32469.8
32563.5
32321.7
31165.7
31242.1
31452.9
32490.4
32844.6
32345.7
32193.7
31989.9
31376
31704
31985
31964.7
31845.3
32141.4
32223.3
32165.7
31653
33336.2
64087.4
94690.8
90553.2
87811.8
83710.9
89023.9
84482.7
87480.6
)
;

boundaryField
{
    sides
    {
        type            zeroGradient;
    }
    empty
    {
        type            empty;
    }
}


// ************************************************************************* //
