/*--------------------------------*- C++ -*----------------------------------*\
| =========                 |                                                 |
| \\      /  F ield         | OpenFOAM: The Open Source CFD Toolbox           |
|  \\    /   O peration     | Version:  2412                                  |
|   \\  /    A nd           | Website:  www.openfoam.com                      |
|    \\/     M anipulation  |                                                 |
\*---------------------------------------------------------------------------*/
FoamFile
{
    version     2.0;
    format      ascii;
    arch        "LSB;label=32;scalar=64";
    class       volVectorField;
    location    "0.0527392";
    object      U;
}
// * * * * * * * * * * * * * * * * * * * * * * * * * * * * * * * * * * * * * //

dimensions      [0 1 -1 0 0 0 0];

internalField   nonuniform List<vector> 
100
(
(-3.49976 0 0)
(-14.7748 0 0)
(-6.91228 0 0)
(6.54248 0 0)
(14.4188 0 0)
(8.64787 0 0)
(-7.56219 0 0)
(-21.1659 0 0)
(-19.3131 0 0)
(-5.88258 0 0)
(16.3055 0 0)
(23.9549 0 0)
(8.5509 0 0)
(-5.84497 0 0)
(-7.59135 0 0)
(-32.0401 0 0)
(-121.529 0 0)
(-230.261 0 0)
(-232.5 0 0)
(-227.393 0 0)
(-225.871 0 0)
(-223.751 0 0)
(-219.678 0 0)
(-214.741 0 0)
(-212.553 0 0)
(-211.335 0 0)
(-211.717 0 0)
(-215.664 0 0)
(-216.473 0 0)
(-215.175 0 0)
(-211.502 0 0)
(-203.641 0 0)
(-198.273 0 0)
(-196.648 0 0)
(-202.455 0 0)
(-224.077 0 0)
(-230.919 0 0)
(-229.875 0 0)
(-227.777 0 0)
(-223.236 0 0)
(-203.521 0 0)
(-175.742 0 0)
(-163.472 0 0)
(-159.942 0 0)
(-158.794 0 0)
(-157.844 0 0)
(-155.878 0 0)
(-151.92 0 0)
(-147.486 0 0)
(-145.028 0 0)
(-144.015 0 0)
(-143.14 0 0)
(-142.824 0 0)
(-143.405 0 0)
(-143.708 0 0)
(-143.156 0 0)
(-142.042 0 0)
(-139.013 0 0)
(-131.231 0 0)
(-121.532 0 0)
(-115.342 0 0)
(-111.604 0 0)
(-109.412 0 0)
(-108.546 0 0)
(-107.926 0 0)
(-107.627 0 0)
(-107.135 0 0)
(-105.768 0 0)
(-102.269 0 0)
(-96.701 0 0)
(-91.7012 0 0)
(-87.6053 0 0)
(-84.6791 0 0)
(-81.9084 0 0)
(-79.3044 0 0)
(-75.8722 0 0)
(-73.0488 0 0)
(-69.5101 0 0)
(-66.4519 0 0)
(-63.5587 0 0)
(-59.5823 0 0)
(-57.2361 0 0)
(-53.7 0 0)
(-51.4441 0 0)
(-48.568 0 0)
(-45.344 0 0)
(-42.0821 0 0)
(-38.1735 0 0)
(-35.6736 0 0)
(-32.1206 0 0)
(-29.2342 0 0)
(-25.7343 0 0)
(-22.8513 0 0)
(-19.619 0 0)
(-16.6418 0 0)
(-13.9457 0 0)
(-11.1303 0 0)
(-8.64021 0 0)
(-5.26552 0 0)
(-2.06721 0 0)
)
;

boundaryField
{
    sides
    {
        type            fixedValue;
        value           uniform (0 0 0);
    }
    empty
    {
        type            empty;
    }
}


// ************************************************************************* //
