/*--------------------------------*- C++ -*----------------------------------*\
| =========                 |                                                 |
| \\      /  F ield         | OpenFOAM: The Open Source CFD Toolbox           |
|  \\    /   O peration     | Version:  2412                                  |
|   \\  /    A nd           | Website:  www.openfoam.com                      |
|    \\/     M anipulation  |                                                 |
\*---------------------------------------------------------------------------*/
FoamFile
{
    version     2.0;
    format      ascii;
    arch        "LSB;label=32;scalar=64";
    class       volScalarField;
    location    "0.0395052";
    object      p;
}
// * * * * * * * * * * * * * * * * * * * * * * * * * * * * * * * * * * * * * //

dimensions      [1 -1 -2 0 0 0 0];

internalField   nonuniform List<scalar> 
100
(
15142.3
15146
15148
15147.9
15142.9
15132.8
15121
15108.3
15095.6
15083.1
15073.2
15068.8
15069.4
15073
15077.8
15082.4
15085.5
15087.8
15089.1
15088.4
15086.5
15084.1
15080.5
15062.7
15024.2
15231.9
25466.4
46799.3
50516
50081.2
50148.2
50515.4
49863.5
49205
49669.5
50399.6
52223.6
54190.1
55208
55883.8
56296.1
55026.7
53212.3
52986
53643.7
54756.2
56587.5
58049.1
58950.8
59755.3
60227.9
59865
59924.3
60647.4
61817.9
62800.3
63641
63230.5
62908.3
63238.9
64512.5
65620
67044.1
67382
66983.5
66851.7
66607.3
69532.9
70026.2
73814.5
72753.8
74200.8
71641.6
70341.6
72772.1
71283
75821.6
75020.5
78084.2
77988.2
79028.1
79485
79899.4
81031.7
80769.3
81154.8
81166
82678
83105.4
85074.2
85769.2
86795.8
86340.3
87419.4
88455.7
91825.4
92451.7
95454.2
94129.7
95171.1
)
;

boundaryField
{
    sides
    {
        type            zeroGradient;
    }
    empty
    {
        type            empty;
    }
}


// ************************************************************************* //
