/*--------------------------------*- C++ -*----------------------------------*\
| =========                 |                                                 |
| \\      /  F ield         | OpenFOAM: The Open Source CFD Toolbox           |
|  \\    /   O peration     | Version:  2412                                  |
|   \\  /    A nd           | Website:  www.openfoam.com                      |
|    \\/     M anipulation  |                                                 |
\*---------------------------------------------------------------------------*/
FoamFile
{
    version     2.0;
    format      ascii;
    arch        "LSB;label=32;scalar=64";
    class       volVectorField;
    location    "0.0037974";
    object      U;
}
// * * * * * * * * * * * * * * * * * * * * * * * * * * * * * * * * * * * * * //

dimensions      [0 1 -1 0 0 0 0];

internalField   nonuniform List<vector> 
100
(
(1.37491e-15 0 0)
(-8.17651e-14 0 0)
(-1.32271e-13 0 0)
(-8.36292e-14 0 0)
(8.69183e-15 0 0)
(7.34654e-14 0 0)
(9.43976e-14 0 0)
(4.67502e-15 0 0)
(-8.39486e-14 0 0)
(-1.11058e-13 0 0)
(-1.35595e-13 0 0)
(-5.77438e-14 0 0)
(-4.84728e-14 0 0)
(-4.10046e-14 0 0)
(-2.38751e-14 0 0)
(-5.32578e-14 0 0)
(-1.01723e-14 0 0)
(5.63981e-14 0 0)
(3.15109e-14 0 0)
(9.62066e-15 0 0)
(4.82618e-14 0 0)
(8.73669e-14 0 0)
(1.60153e-13 0 0)
(1.67191e-13 0 0)
(1.00185e-13 0 0)
(6.89317e-14 0 0)
(8.64537e-14 0 0)
(1.58688e-13 0 0)
(1.91564e-13 0 0)
(1.3332e-13 0 0)
(2.23241e-13 0 0)
(8.89443e-11 0 0)
(4.36323e-08 0 0)
(1.44361e-05 0 0)
(0.00250903 0 0)
(0.16389 0 0)
(2.90354 0 0)
(15.2797 0 0)
(36.9949 0 0)
(60.6084 0 0)
(82.3811 0 0)
(104.052 0 0)
(123.148 0 0)
(146.412 0 0)
(164.46 0 0)
(182.98 0 0)
(208.183 0 0)
(223.074 0 0)
(241.166 0 0)
(265.846 0 0)
(284.936 0 0)
(287.314 0 0)
(279.124 0 0)
(279.055 0 0)
(287.283 0 0)
(286.884 0 0)
(280.365 0 0)
(276.188 0 0)
(277.93 0 0)
(282.543 0 0)
(286.573 0 0)
(282.907 0 0)
(274.944 0 0)
(274.26 0 0)
(275.154 0 0)
(283.943 0 0)
(298.846 0 0)
(281.921 0 0)
(133.658 0 0)
(3.64426 0 0)
(0.00426378 0 0)
(7.41831e-07 0 0)
(6.57183e-11 0 0)
(-3.71668e-14 0 0)
(-9.86871e-14 0 0)
(7.693e-14 0 0)
(-3.4893e-14 0 0)
(7.37385e-15 0 0)
(-6.22716e-14 0 0)
(-1.62833e-13 0 0)
(-1.39348e-13 0 0)
(-3.81779e-14 0 0)
(6.83043e-14 0 0)
(-1.05551e-13 0 0)
(-1.21111e-13 0 0)
(-1.96216e-13 0 0)
(-2.54691e-13 0 0)
(-1.34343e-13 0 0)
(-1.95521e-13 0 0)
(-1.85384e-13 0 0)
(-2.93568e-14 0 0)
(-6.96687e-14 0 0)
(-1.73871e-13 0 0)
(-2.30658e-13 0 0)
(-2.46965e-13 0 0)
(-1.46815e-13 0 0)
(-4.80161e-14 0 0)
(-2.74406e-14 0 0)
(-7.75242e-14 0 0)
(-1.48845e-13 0 0)
)
;

boundaryField
{
    sides
    {
        type            fixedValue;
        value           uniform (0 0 0);
    }
    empty
    {
        type            empty;
    }
}


// ************************************************************************* //
