/*--------------------------------*- C++ -*----------------------------------*\
| =========                 |                                                 |
| \\      /  F ield         | OpenFOAM: The Open Source CFD Toolbox           |
|  \\    /   O peration     | Version:  2412                                  |
|   \\  /    A nd           | Website:  www.openfoam.com                      |
|    \\/     M anipulation  |                                                 |
\*---------------------------------------------------------------------------*/
FoamFile
{
    version     2.0;
    format      ascii;
    arch        "LSB;label=32;scalar=64";
    class       volScalarField;
    location    "0.0151544";
    object      rhoY_Y_N2;
}
// * * * * * * * * * * * * * * * * * * * * * * * * * * * * * * * * * * * * * //

dimensions      [1 -3 0 0 0 0 0];

internalField   nonuniform List<scalar> 
100
(
1.11726
1.09582
1.05991
1.02772
1.00364
0.98458
0.967793
0.951879
0.936289
0.920867
0.9056
0.890505
0.875598
0.860888
0.846372
0.832049
0.817909
0.803959
0.790177
0.776611
0.763184
0.750052
0.737037
0.724361
0.71196
0.699442
0.687904
0.67516
0.664233
0.652219
0.640851
0.630197
0.618856
0.608332
0.597153
0.587379
0.576512
0.566213
0.555673
0.546283
0.536516
0.526476
0.516541
0.507736
0.49895
0.489807
0.482676
0.475686
0.466778
0.719184
0.513079
0.512118
0.510284
0.502737
0.483372
0.47618
0.496825
0.514995
0.498755
0.457284
0.453795
0.500849
0.528634
0.500318
0.443712
0.440689
0.495512
0.530888
0.508475
0.447685
0.434298
0.472094
0.523183
0.520141
0.469766
0.435363
0.443829
0.497676
0.534471
0.523037
0.46837
0.418863
0.415673
0.447983
0.509445
0.552455
0.540491
0.513137
0.549218
0.285318
0.0821039
0.0182815
0.00339496
0.000473174
4.90422e-05
3.2401e-06
6.37059e-08
-7.86305e-09
-1.20075e-09
-6.99527e-11
)
;

boundaryField
{
    sides
    {
        type            calculated;
        value           nonuniform List<scalar> 2(0 1.12308);
    }
    empty
    {
        type            empty;
    }
}


// ************************************************************************* //
