/*--------------------------------*- C++ -*----------------------------------*\
| =========                 |                                                 |
| \\      /  F ield         | OpenFOAM: The Open Source CFD Toolbox           |
|  \\    /   O peration     | Version:  2412                                  |
|   \\  /    A nd           | Website:  www.openfoam.com                      |
|    \\/     M anipulation  |                                                 |
\*---------------------------------------------------------------------------*/
FoamFile
{
    version     2.0;
    format      ascii;
    arch        "LSB;label=32;scalar=64";
    class       volVectorField;
    location    "0.0151544";
    object      U;
}
// * * * * * * * * * * * * * * * * * * * * * * * * * * * * * * * * * * * * * //

dimensions      [0 1 -1 0 0 0 0];

internalField   nonuniform List<vector> 
100
(
(1.06757 0 0)
(8.48242 0 0)
(19.5703 0 0)
(29.8107 0 0)
(37.7439 0 0)
(44.1501 0 0)
(49.8717 0 0)
(55.3664 0 0)
(60.8227 0 0)
(66.2966 0 0)
(71.7934 0 0)
(77.3065 0 0)
(82.8299 0 0)
(88.3606 0 0)
(93.8974 0 0)
(99.4422 0 0)
(104.993 0 0)
(110.559 0 0)
(116.12 0 0)
(121.717 0 0)
(127.255 0 0)
(132.913 0 0)
(138.329 0 0)
(144.114 0 0)
(149.276 0 0)
(155.247 0 0)
(160.235 0 0)
(166.193 0 0)
(171.453 0 0)
(176.934 0 0)
(182.648 0 0)
(187.754 0 0)
(193.571 0 0)
(198.649 0 0)
(204.553 0 0)
(209.668 0 0)
(215.449 0 0)
(220.785 0 0)
(226.574 0 0)
(231.988 0 0)
(237.564 0 0)
(243.055 0 0)
(248.702 0 0)
(254.143 0 0)
(259.347 0 0)
(264.776 0 0)
(270.162 0 0)
(274.341 0 0)
(278.512 0 0)
(282.684 0 0)
(285.002 0 0)
(285.737 0 0)
(282.862 0 0)
(280.827 0 0)
(281.748 0 0)
(286.494 0 0)
(287.731 0 0)
(279.228 0 0)
(276.784 0 0)
(282.176 0 0)
(289.953 0 0)
(289.631 0 0)
(276.505 0 0)
(275.194 0 0)
(282.424 0 0)
(291.281 0 0)
(290.357 0 0)
(276.494 0 0)
(275.063 0 0)
(279.45 0 0)
(289.372 0 0)
(289.393 0 0)
(281.598 0 0)
(275.432 0 0)
(276.535 0 0)
(285.683 0 0)
(288.855 0 0)
(287.597 0 0)
(278.515 0 0)
(275.267 0 0)
(277.511 0 0)
(280.179 0 0)
(287.62 0 0)
(286.114 0 0)
(282.087 0 0)
(281.522 0 0)
(279.663 0 0)
(254.84 0 0)
(86.4577 0 0)
(9.05045 0 0)
(10.1962 0 0)
(7.4297 0 0)
(5.07025 0 0)
(3.37991 0 0)
(1.75429 0 0)
(1.44997 0 0)
(-0.151645 0 0)
(0.993258 0 0)
(3.6237 0 0)
(-1.73894 0 0)
)
;

boundaryField
{
    sides
    {
        type            fixedValue;
        value           uniform (0 0 0);
    }
    empty
    {
        type            empty;
    }
}


// ************************************************************************* //
