/*--------------------------------*- C++ -*----------------------------------*\
| =========                 |                                                 |
| \\      /  F ield         | OpenFOAM: The Open Source CFD Toolbox           |
|  \\    /   O peration     | Version:  2412                                  |
|   \\  /    A nd           | Website:  www.openfoam.com                      |
|    \\/     M anipulation  |                                                 |
\*---------------------------------------------------------------------------*/
FoamFile
{
    version     2.0;
    format      ascii;
    arch        "LSB;label=32;scalar=64";
    class       volVectorField;
    location    "7.30053e-05";
    object      U;
}
// * * * * * * * * * * * * * * * * * * * * * * * * * * * * * * * * * * * * * //

dimensions      [0 1 -1 0 0 0 0];

internalField   nonuniform List<vector> 
1800
(
(2.9 -5.15866e-14 0)
(2.9 1.85133e-14 0)
(2.9 3.91957e-14 0)
(2.9 -4.84652e-14 0)
(2.9 -3.00812e-14 0)
(2.9 -6.86181e-14 0)
(2.9 -7.89975e-14 0)
(2.9 -5.7923e-14 0)
(2.9 -1.90388e-14 0)
(2.9 -3.75869e-14 0)
(2.9 -1.00993e-14 0)
(2.9 -6.27788e-14 0)
(2.9 -6.6237e-14 0)
(2.9 -5.61344e-14 0)
(2.9 -8.15114e-14 0)
(2.9 -1.57902e-15 0)
(2.9 -2.19002e-14 0)
(2.9 -2.87695e-14 0)
(2.9 -5.24125e-14 0)
(2.9 -3.62666e-14 0)
(2.9 -2.93336e-14 0)
(2.9 -2.43207e-14 0)
(2.9 -2.10607e-14 0)
(2.9 1.42575e-14 0)
(2.9 -8.09173e-15 0)
(2.9 -7.49371e-14 0)
(2.9 -6.87239e-14 0)
(2.9 -4.24808e-14 0)
(2.9 4.25335e-14 0)
(2.9 7.33826e-14 0)
(2.9 -1.46371e-14 0)
(2.9 1.92255e-15 0)
(2.9 -5.91159e-14 0)
(2.9 -7.8425e-14 0)
(2.9 -1.80095e-14 0)
(2.9 -2.04029e-15 0)
(2.9 -1.18932e-16 0)
(2.9 1.76103e-14 0)
(2.9 1.28736e-14 0)
(2.9 -1.41922e-14 0)
(2.9 -5.06714e-15 0)
(2.9 3.50462e-14 0)
(2.9 4.99548e-15 0)
(2.9 9.93829e-16 0)
(2.9 -4.36242e-14 0)
(2.9 -4.68905e-14 0)
(2.9 1.16611e-14 0)
(2.9 5.9545e-14 0)
(2.9 4.13063e-14 0)
(2.9 4.99783e-14 0)
(2.9 1.81139e-14 0)
(2.9 -1.95377e-14 0)
(2.9 9.87518e-15 0)
(2.9 -1.96884e-14 0)
(2.9 5.64751e-15 0)
(2.9 1.56387e-14 0)
(2.9 -5.65062e-14 0)
(2.9 -2.06091e-14 0)
(2.9 -6.2873e-14 0)
(2.9 -1.07927e-13 0)
(2.9 -1.02978e-13 0)
(2.9 4.34389e-14 0)
(2.9 5.67263e-14 0)
(2.9 -2.10814e-14 0)
(2.9 -6.13568e-14 0)
(2.9 -1.66168e-13 0)
(2.9 -1.65404e-13 0)
(2.9 -1.18173e-13 0)
(2.9 -4.45803e-14 0)
(2.9 -2.91482e-14 0)
(2.9 -2.53932e-14 0)
(2.9 -1.30774e-13 0)
(2.9 -7.38609e-14 0)
(2.9 -7.38898e-14 0)
(2.9 -5.55947e-14 0)
(2.9 2.88521e-14 0)
(2.9 -5.83948e-14 0)
(2.9 -7.51993e-14 0)
(2.9 -9.27977e-14 0)
(2.9 -3.57213e-14 0)
(2.9 -5.28593e-14 0)
(2.9 -1.75267e-14 0)
(2.9 1.40948e-14 0)
(2.9 5.41916e-14 0)
(2.9 -7.86188e-14 0)
(2.9 -1.97112e-13 0)
(2.9 -1.34217e-13 0)
(2.9 -1.1893e-13 0)
(2.9 6.45323e-14 0)
(2.9 1.24662e-13 0)
(2.9 -2.56171e-14 0)
(2.9 8.41472e-15 0)
(2.9 -1.36969e-13 0)
(2.9 -1.54984e-13 0)
(2.9 -6.95502e-14 0)
(2.9 -5.48391e-14 0)
(2.9 6.69389e-15 0)
(2.9 5.91643e-14 0)
(2.9 -3.749e-15 0)
(2.9 -4.89113e-14 0)
(2.9 -2.98469e-14 0)
(2.9 4.38331e-14 0)
(2.9 1.63953e-14 0)
(2.9 1.58074e-14 0)
(2.9 -5.58596e-14 0)
(2.9 -1.14238e-13 0)
(2.9 2.33926e-14 0)
(2.9 8.29147e-14 0)
(2.9 9.74214e-14 0)
(2.9 1.13346e-13 0)
(2.9 -2.27292e-15 0)
(2.9 -7.93097e-14 0)
(2.9 -1.98902e-14 0)
(2.9 -8.89024e-14 0)
(2.9 -2.28086e-14 0)
(2.9 2.86289e-14 0)
(2.9 -6.26548e-14 0)
(2.9 -2.81675e-14 0)
(2.9 -1.53303e-13 0)
(2.9 -1.58898e-13 0)
(2.9 -6.67965e-14 0)
(2.9 -4.56798e-15 0)
(2.9 2.15136e-14 0)
(2.9 -7.28157e-15 0)
(2.9 -2.10721e-14 0)
(2.9 -1.11269e-13 0)
(2.9 -1.25598e-13 0)
(2.9 -6.62009e-14 0)
(2.9 8.86051e-15 0)
(2.9 -4.30647e-14 0)
(2.9 -5.10992e-14 0)
(2.9 -9.4237e-14 0)
(2.9 -4.07529e-14 0)
(2.9 -4.1075e-14 0)
(2.9 -1.01952e-14 0)
(2.9 5.61334e-14 0)
(2.9 -1.36159e-14 0)
(2.9 -5.29108e-14 0)
(2.9 -3.80782e-14 0)
(2.9 -3.86565e-14 0)
(2.9 -2.08992e-14 0)
(2.9 2.02278e-14 0)
(2.9 6.4396e-14 0)
(2.9 4.76363e-14 0)
(2.9 -9.95943e-14 0)
(2.9 -1.8586e-13 0)
(2.9 -8.72692e-14 0)
(2.9 -4.63142e-14 0)
(2.9 1.62439e-14 0)
(2.9 1.36327e-14 0)
(2.9 -3.61195e-14 0)
(2.9 -4.4672e-14 0)
(2.9 -9.95381e-14 0)
(2.9 -1.12713e-13 0)
(2.9 -5.69539e-14 0)
(2.9 -5.93053e-14 0)
(2.9 -2.89726e-16 0)
(2.9 3.1503e-14 0)
(2.9 -7.72857e-14 0)
(2.9 -1.20063e-13 0)
(2.9 -4.52405e-14 0)
(2.9 -4.12198e-14 0)
(2.9 3.34406e-14 0)
(2.9 9.70141e-15 0)
(2.9 -1.98118e-14 0)
(2.9 -5.59484e-14 0)
(2.9 1.18305e-14 0)
(2.9 6.56973e-14 0)
(2.9 5.42237e-14 0)
(2.9 4.14327e-15 0)
(2.9 -3.89987e-14 0)
(2.9 -1.00014e-14 0)
(2.9 -4.22751e-14 0)
(2.9 -5.37967e-14 0)
(2.9 -5.96955e-15 0)
(2.9 -9.09336e-15 0)
(2.9 -1.00335e-14 0)
(2.9 -4.31363e-14 0)
(2.9 -1.04816e-13 0)
(2.9 -1.06684e-13 0)
(2.9 7.75432e-15 0)
(2.9 -6.7603e-14 0)
(2.9 1.45418e-15 0)
(2.9 -6.74504e-14 0)
(2.9 -4.24924e-14 0)
(2.9 -4.48261e-14 0)
(2.9 -8.48713e-14 0)
(2.9 -5.47676e-14 0)
(2.9 -1.4449e-14 0)
(2.9 -9.85358e-14 0)
(2.9 -7.7871e-14 0)
(2.9 -9.92548e-14 0)
(2.9 -3.27984e-14 0)
(2.9 -6.00323e-14 0)
(2.9 -3.89974e-14 0)
(2.9 1.01523e-14 0)
(2.9 -1.61823e-14 0)
(2.9 7.24562e-15 0)
(2.9 7.28972e-14 0)
(2.9 1.33051e-15 0)
(2.9 6.19966e-14 0)
(2.9 5.44127e-14 0)
(2.9 2.5023e-16 0)
(2.9 -1.68736e-14 0)
(2.9 -4.94119e-14 0)
(2.9 -9.44959e-14 0)
(2.9 7.38018e-15 0)
(2.9 -1.43427e-14 0)
(2.9 -2.76725e-15 0)
(2.9 -1.64972e-15 0)
(2.9 -8.2471e-15 0)
(2.9 2.37938e-14 0)
(2.9 -4.24153e-14 0)
(2.9 -1.57626e-15 0)
(2.9 -3.84319e-14 0)
(2.9 -4.93707e-15 0)
(2.9 5.0606e-14 0)
(2.9 2.70398e-14 0)
(2.9 -3.33348e-14 0)
(2.9 -1.0548e-13 0)
(2.9 -3.6175e-14 0)
(2.9 -6.54642e-14 0)
(2.9 -5.61188e-14 0)
(2.9 -3.68412e-14 0)
(2.9 -2.74049e-14 0)
(2.9 -7.92369e-14 0)
(2.9 -2.23512e-14 0)
(2.9 4.53123e-14 0)
(2.9 -5.65279e-14 0)
(2.9 -8.69766e-14 0)
(2.9 -7.58345e-14 0)
(2.9 -1.33352e-15 0)
(2.9 -1.7814e-14 0)
(2.9 5.75334e-15 0)
(2.9 -1.21244e-14 0)
(2.9 -7.18237e-15 0)
(2.9 8.90644e-15 0)
(2.9 -4.83958e-14 0)
(2.9 -1.10708e-14 0)
(2.9 8.6665e-15 0)
(2.9 -8.96299e-15 0)
(2.9 -1.10275e-13 0)
(2.9 -2.01452e-14 0)
(2.9 -8.28919e-14 0)
(2.9 -1.42319e-14 0)
(2.9 7.82934e-16 0)
(2.9 -6.31955e-14 0)
(2.9 -5.36648e-14 0)
(2.9 -1.93221e-14 0)
(2.9 -8.27842e-14 0)
(2.9 -9.89927e-14 0)
(2.9 -4.73512e-14 0)
(2.9 1.09475e-14 0)
(2.9 -8.37624e-15 0)
(2.9 -3.06424e-14 0)
(2.9 -8.362e-14 0)
(2.9 -3.2989e-14 0)
(2.9 1.40373e-14 0)
(2.9 9.38386e-14 0)
(2.9 6.86348e-14 0)
(2.9 6.66343e-14 0)
(2.9 2.97938e-14 0)
(2.9 -9.25017e-14 0)
(2.9 -7.98061e-14 0)
(2.9 1.40153e-14 0)
(2.9 -1.74909e-15 0)
(2.9 5.16189e-14 0)
(2.9 -2.02495e-14 0)
(2.9 1.43514e-16 0)
(2.9 8.87805e-15 0)
(2.9 2.06553e-14 0)
(2.9 7.60335e-14 0)
(2.9 2.47593e-14 0)
(2.9 7.74956e-14 0)
(2.9 -3.88053e-14 0)
(2.9 -3.7026e-15 0)
(2.9 5.84984e-14 0)
(2.9 5.67007e-15 0)
(2.9 2.94404e-15 0)
(2.9 -6.26893e-14 0)
(2.9 -5.76242e-14 0)
(2.9 -5.78261e-14 0)
(2.9 -1.10008e-13 0)
(2.9 -8.07505e-14 0)
(2.9 -4.16627e-14 0)
(2.9 -7.08813e-14 0)
(2.9 -2.9251e-14 0)
(2.9 -3.75945e-15 0)
(2.9 -8.92893e-14 0)
(2.9 -5.45652e-14 0)
(2.9 -2.75014e-14 0)
(2.9 2.89165e-14 0)
(2.9 -1.89666e-14 0)
(2.9 -1.64342e-14 0)
(2.9 -1.29893e-14 0)
(2.9 6.61782e-15 0)
(2.9 2.44237e-14 0)
(2.9 1.69614e-14 0)
(2.9 5.83145e-14 0)
(2.9 8.58384e-14 0)
(2.9 -3.30504e-14 0)
(2.9 -1.17086e-13 0)
(2.9 -8.50148e-14 0)
(2.9 -5.87489e-14 0)
(2.9 5.93195e-14 0)
(2.9 2.36892e-15 0)
(2.9 2.95262e-14 0)
(2.9 4.8474e-14 0)
(2.9 -8.37546e-14 0)
(2.9 -9.58532e-14 0)
(2.9 -1.20568e-13 0)
(2.9 -3.94288e-14 0)
(2.9 -4.82498e-14 0)
(2.9 1.62478e-14 0)
(2.9 1.26133e-14 0)
(2.9 -7.66213e-14 0)
(2.9 -2.38858e-14 0)
(2.9 9.30567e-16 0)
(2.9 5.75092e-14 0)
(2.9 9.79676e-15 0)
(2.9 -5.1127e-14 0)
(2.9 -5.42328e-14 0)
(2.9 -6.57208e-14 0)
(2.9 -6.56267e-14 0)
(2.9 -4.00889e-14 0)
(2.9 2.85471e-14 0)
(2.9 5.52042e-14 0)
(2.9 -3.92643e-16 0)
(2.9 4.52959e-15 0)
(2.9 2.01049e-14 0)
(2.9 -2.20508e-14 0)
(2.9 -7.27641e-15 0)
(2.9 2.48468e-14 0)
(2.9 -1.57001e-15 0)
(2.9 -6.73525e-14 0)
(2.9 -8.18804e-14 0)
(2.9 -7.71524e-14 0)
(2.9 -5.68128e-14 0)
(2.9 -1.24039e-13 0)
(2.9 -5.99847e-14 0)
(2.9 -9.71175e-14 0)
(2.9 -3.61261e-14 0)
(2.9 -8.26387e-14 0)
(2.9 -5.37241e-16 0)
(2.9 -2.23202e-14 0)
(2.9 2.98806e-14 0)
(2.9 -1.65718e-14 0)
(2.9 -8.43333e-14 0)
(2.9 -1.06639e-13 0)
(2.9 -1.54603e-14 0)
(2.9 5.3894e-14 0)
(2.9 4.04769e-15 0)
(2.9 -5.2922e-14 0)
(2.9 -6.65866e-14 0)
(2.9 -4.11151e-14 0)
(2.9 -2.33026e-14 0)
(2.9 1.3563e-14 0)
(2.9 3.87818e-14 0)
(2.9 -8.09127e-15 0)
(2.9 2.40795e-14 0)
(2.9 -2.20679e-14 0)
(2.9 -3.52754e-14 0)
(2.9 -1.38314e-13 0)
(2.9 -2.4859e-14 0)
(2.9 9.1899e-14 0)
(2.9 3.637e-14 0)
(2.9 1.06571e-13 0)
(2.9 7.30361e-14 0)
(2.9 -3.9851e-14 0)
(2.9 -7.28985e-14 0)
(2.9 -6.6889e-14 0)
(2.9 -8.59874e-14 0)
(2.9 -1.03099e-13 0)
(2.9 -1.26354e-14 0)
(2.9 3.03387e-14 0)
(2.9 -3.93481e-14 0)
(2.9 -9.6034e-15 0)
(2.9 -3.92803e-15 0)
(2.9 -7.1986e-14 0)
(2.9 -4.77777e-14 0)
(2.9 -1.33528e-13 0)
(2.9 -9.29502e-14 0)
(2.9 1.79236e-14 0)
(2.9 -4.7095e-14 0)
(2.9 -4.34805e-14 0)
(2.9 2.13637e-14 0)
(2.9 6.23999e-14 0)
(2.9 -7.73961e-15 0)
(2.9 1.8518e-14 0)
(2.9 2.06944e-14 0)
(2.9 -7.90604e-14 0)
(2.9 8.14182e-16 0)
(2.9 -7.39011e-15 0)
(2.9 -2.67465e-14 0)
(2.9 -1.11738e-13 0)
(2.9 -1.64483e-13 0)
(2.9 -1.50811e-13 0)
(2.9 -6.88156e-14 0)
(2.9 -1.55412e-13 0)
(2.9 -9.64522e-14 0)
(2.9 -1.10284e-13 0)
(2.9 6.40353e-15 0)
(2.9 5.89597e-15 0)
(2.9 9.24479e-14 0)
(2.9 4.6041e-14 0)
(2.9 5.39675e-15 0)
(2.9 -6.33977e-14 0)
(2.9 -6.53051e-14 0)
(2.9 -1.18041e-13 0)
(2.9 -2.91126e-14 0)
(2.9 -8.20723e-15 0)
(2.9 -6.19799e-14 0)
(2.9 -4.23839e-14 0)
(2.9 -9.46069e-14 0)
(2.9 -9.7134e-14 0)
(2.9 -6.30966e-14 0)
(2.9 -2.38781e-14 0)
(2.9 -3.87027e-14 0)
(2.9 -4.18407e-14 0)
(2.9 -3.48906e-14 0)
(2.9 -8.43953e-15 0)
(2.9 5.3349e-14 0)
(2.9 -9.09258e-14 0)
(2.9 -3.02585e-14 0)
(2.9 1.07993e-14 0)
(2.9 1.12231e-13 0)
(2.9 1.15701e-13 0)
(2.9 4.89676e-15 0)
(2.9 4.81215e-15 0)
(2.9 -1.84875e-14 0)
(2.9 -3.11905e-14 0)
(2.9 -5.90657e-14 0)
(2.9 -1.62651e-13 0)
(2.9 -1.24542e-13 0)
(2.9 -3.4684e-14 0)
(2.9 1.18684e-14 0)
(2.9 2.81407e-14 0)
(2.9 1.02802e-14 0)
(2.9 -8.75041e-14 0)
(2.9 -1.11326e-13 0)
(2.9 -5.58694e-14 0)
(2.9 -7.29336e-15 0)
(2.9 4.68039e-14 0)
(2.9 -8.67529e-15 0)
(2.9 5.30471e-15 0)
(2.9 3.52526e-14 0)
(2.9 6.54489e-14 0)
(2.9 3.52459e-14 0)
(2.9 6.59422e-14 0)
(2.9 -2.76578e-15 0)
(2.9 -1.08098e-14 0)
(2.9 4.70732e-14 0)
(2.9 3.84465e-14 0)
(2.9 -1.1467e-14 0)
(2.9 -7.35694e-14 0)
(2.9 -5.02204e-14 0)
(2.9 -4.75543e-14 0)
(2.9 2.5056e-14 0)
(2.9 -1.46867e-14 0)
(2.9 -8.23882e-15 0)
(2.9 -2.1593e-14 0)
(2.9 3.69338e-14 0)
(2.9 4.91316e-14 0)
(2.9 7.92071e-14 0)
(2.9 6.68293e-14 0)
(2.9 -3.79795e-14 0)
(2.9 -8.62893e-14 0)
(2.9 -3.0611e-14 0)
(2.9 -5.29153e-14 0)
(2.9 -6.66558e-14 0)
(2.9 -1.65862e-16 0)
(2.9 -4.46879e-14 0)
(2.9 -6.13072e-14 0)
(2.9 -1.06183e-13 0)
(2.9 -6.74723e-14 0)
(2.9 -4.73999e-14 0)
(2.9 -3.42249e-14 0)
(2.9 -1.59236e-14 0)
(2.9 -4.87417e-14 0)
(2.9 -4.53959e-14 0)
(2.9 -1.46183e-14 0)
(2.9 7.4955e-14 0)
(2.9 1.27656e-16 0)
(2.9 6.04383e-15 0)
(2.9 -4.53101e-14 0)
(2.9 2.74321e-14 0)
(2.9 4.35029e-14 0)
(2.9 -3.58134e-14 0)
(2.9 4.72334e-14 0)
(2.9 1.28932e-14 0)
(2.9 -1.59592e-14 0)
(2.9 -7.7145e-14 0)
(2.9 -1.09251e-13 0)
(2.9 -1.14254e-13 0)
(2.9 -7.65976e-14 0)
(2.9 4.34155e-15 0)
(2.9 4.20221e-14 0)
(2.9 4.59461e-14 0)
(2.9 -4.34242e-14 0)
(2.9 -9.96613e-14 0)
(2.9 -7.6743e-15 0)
(2.9 6.81905e-14 0)
(2.9 -3.97107e-16 0)
(2.9 3.39664e-15 0)
(2.9 5.16047e-14 0)
(2.9 2.52508e-14 0)
(2.9 7.93542e-14 0)
(2.9 8.63961e-14 0)
(2.9 8.41794e-14 0)
(2.9 2.55432e-14 0)
(2.9 4.94339e-14 0)
(2.9 4.83886e-15 0)
(2.9 3.19254e-14 0)
(2.9 -1.58211e-14 0)
(2.9 -5.21642e-15 0)
(2.9 5.09123e-14 0)
(2.9 5.94996e-14 0)
(2.9 2.85569e-14 0)
(2.9 5.8893e-14 0)
(2.9 6.19982e-14 0)
(2.9 2.92111e-14 0)
(2.9 6.80346e-14 0)
(2.9 8.75605e-14 0)
(2.9 4.5941e-14 0)
(2.9 3.71566e-14 0)
(2.9 6.52082e-14 0)
(2.9 -4.41738e-14 0)
(2.9 -1.04094e-14 0)
(2.9 7.35771e-14 0)
(2.9 1.09078e-14 0)
(2.9 2.77724e-14 0)
(2.9 4.15873e-14 0)
(2.9 -5.15689e-14 0)
(2.9 -8.0898e-14 0)
(2.9 9.00834e-15 0)
(2.9 -3.05157e-14 0)
(2.9 -4.6415e-14 0)
(2.9 -1.389e-15 0)
(2.9 -3.43377e-14 0)
(2.9 -5.12507e-14 0)
(2.9 -3.2504e-14 0)
(2.9 5.18449e-14 0)
(2.9 7.43173e-14 0)
(2.9 5.83881e-14 0)
(2.9 -1.23309e-14 0)
(2.9 -3.99622e-14 0)
(2.9 -6.19714e-14 0)
(2.9 -2.2544e-15 0)
(2.9 6.54758e-14 0)
(2.9 4.90148e-14 0)
(2.9 6.67411e-15 0)
(2.9 -6.7339e-14 0)
(2.9 -6.33014e-14 0)
(2.9 -2.78721e-14 0)
(2.9 -2.5613e-14 0)
(2.9 3.0675e-14 0)
(2.9 2.25067e-14 0)
(2.9 1.10234e-13 0)
(2.9 1.98983e-14 0)
(2.9 -5.49535e-14 0)
(2.9 -6.90315e-15 0)
(2.9 2.75713e-14 0)
(2.9 -2.33455e-14 0)
(2.9 -2.02685e-14 0)
(2.9 3.13481e-15 0)
(2.9 1.36304e-14 0)
(2.9 7.35273e-14 0)
(2.9 8.80571e-14 0)
(2.9 6.54711e-14 0)
(2.9 3.44783e-14 0)
(2.9 6.14452e-15 0)
(2.9 -5.13626e-14 0)
(2.9 5.21439e-14 0)
(2.9 -3.178e-14 0)
(2.9 2.8745e-14 0)
(2.9 5.01606e-14 0)
(2.9 4.19873e-14 0)
(2.9 6.31812e-15 0)
(2.9 1.99696e-14 0)
(2.9 8.51349e-14 0)
(2.9 7.35444e-14 0)
(2.9 6.72093e-14 0)
(2.9 8.12843e-14 0)
(2.9 3.29042e-14 0)
(2.9 1.50181e-14 0)
(2.9 8.05193e-14 0)
(2.9 -8.90692e-15 0)
(2.9 -2.05969e-14 0)
(2.9 8.07335e-14 0)
(2.9 9.78168e-14 0)
(2.9 6.47872e-15 0)
(2.9 7.68485e-14 0)
(2.9 5.31638e-15 0)
(2.9 -1.59249e-14 0)
(2.9 2.94739e-14 0)
(2.9 -3.11688e-14 0)
(2.9 -5.92681e-14 0)
(2.9 -5.65569e-14 0)
(2.9 -1.90182e-14 0)
(2.9 3.80292e-15 0)
(2.9 -6.04695e-14 0)
(2.9 -5.44283e-15 0)
(2.9 7.49527e-14 0)
(2.9 3.56354e-14 0)
(2.9 -3.63058e-14 0)
(2.9 -6.80068e-14 0)
(2.9 -2.01638e-14 0)
(2.9 8.48894e-14 0)
(2.9 6.85522e-14 0)
(2.9 -3.93329e-15 0)
(2.9 3.16782e-14 0)
(2.9 8.08124e-15 0)
(2.9 1.16029e-14 0)
(2.9 3.88982e-14 0)
(2.9 7.72048e-15 0)
(2.9 8.78411e-14 0)
(2.9 8.95799e-16 0)
(2.9 4.69321e-14 0)
(2.9 1.05439e-13 0)
(2.9 2.13953e-14 0)
(2.9 -6.59102e-14 0)
(2.9 -1.46808e-15 0)
(2.9 5.72546e-15 0)
(2.9 2.27984e-14 0)
(2.9 -7.08027e-14 0)
(2.9 -2.86368e-14 0)
(2.9 -4.38321e-15 0)
(2.9 5.83114e-14 0)
(2.9 -6.12297e-15 0)
(2.9 -2.1516e-14 0)
(2.9 -2.14023e-14 0)
(2.9 -1.22579e-13 0)
(2.9 -3.58104e-14 0)
(2.9 -5.31108e-14 0)
(2.9 2.87233e-14 0)
(2.9 8.16495e-14 0)
(2.9 5.6647e-14 0)
(2.9 -1.93559e-14 0)
(2.9 8.27496e-15 0)
(2.9 6.23434e-14 0)
(2.9 1.10007e-13 0)
(2.9 4.69198e-15 0)
(2.9 5.97009e-14 0)
(2.9 -3.27226e-15 0)
(2.9 -2.67121e-14 0)
(2.9 2.83646e-14 0)
(2.9 -4.02544e-14 0)
(2.9 -4.1153e-15 0)
(2.9 3.16699e-14 0)
(2.9 4.3722e-14 0)
(2.9 -2.65604e-14 0)
(2.9 2.60145e-14 0)
(2.9 -1.08386e-14 0)
(2.9 1.25449e-14 0)
(2.9 6.01319e-15 0)
(2.9 1.61912e-14 0)
(2.9 -3.15882e-14 0)
(2.9 -1.05972e-13 0)
(2.9 5.22066e-14 0)
(2.9 9.17355e-14 0)
(2.9 9.57401e-15 0)
(2.9 1.1828e-14 0)
(2.9 3.38588e-14 0)
(2.9 -3.55462e-14 0)
(2.9 -5.51332e-14 0)
(2.9 -8.83792e-14 0)
(2.9 -2.54856e-15 0)
(2.9 8.14309e-14 0)
(2.9 7.88971e-14 0)
(2.9 -1.51583e-14 0)
(2.9 5.54666e-14 0)
(2.9 5.36458e-14 0)
(2.9 6.20026e-14 0)
(2.9 -6.10531e-15 0)
(2.9 1.9492e-16 0)
(2.9 5.0838e-14 0)
(2.9 -3.97615e-14 0)
(2.9 -2.2554e-14 0)
(2.9 3.99258e-14 0)
(2.9 2.94432e-14 0)
(2.9 -3.18821e-14 0)
(2.9 -7.25828e-15 0)
(2.9 -1.72286e-14 0)
(2.9 9.31724e-15 0)
(2.9 -6.36295e-14 0)
(2.9 -2.85119e-14 0)
(2.9 -8.27058e-14 0)
(2.9 -1.43925e-14 0)
(2.9 -4.99335e-14 0)
(2.9 -3.872e-14 0)
(2.9 8.62496e-15 0)
(2.9 -8.51964e-14 0)
(2.9 -7.78009e-14 0)
(2.9 3.47196e-15 0)
(2.9 2.5072e-14 0)
(2.9 6.06966e-14 0)
(2.9 1.52316e-14 0)
(2.9 1.56852e-14 0)
(2.9 2.81222e-14 0)
(2.9 -1.3804e-14 0)
(2.9 7.88479e-14 0)
(2.9 -2.96492e-14 0)
(2.9 3.27239e-14 0)
(2.9 3.71602e-15 0)
(2.9 -7.97223e-15 0)
(2.9 -4.80751e-14 0)
(2.9 1.06848e-14 0)
(2.9 -2.98492e-14 0)
(2.9 -5.29853e-14 0)
(2.9 1.75671e-14 0)
(2.9 -6.12032e-14 0)
(2.9 -2.69971e-14 0)
(2.9 2.11486e-14 0)
(2.9 5.80824e-14 0)
(2.9 -9.21923e-15 0)
(2.9 2.77422e-15 0)
(2.9 -2.63315e-14 0)
(2.9 -7.04031e-14 0)
(2.9 3.80467e-14 0)
(2.9 1.02523e-13 0)
(2.9 5.86854e-14 0)
(2.9 5.78224e-15 0)
(2.9 -4.71084e-14 0)
(2.9 3.27276e-14 0)
(2.9 -1.45666e-14 0)
(2.9 -1.08382e-14 0)
(2.9 2.73218e-17 0)
(2.9 5.62408e-15 0)
(2.9 -4.20382e-16 0)
(2.9 -1.50488e-14 0)
(2.9 5.56573e-14 0)
(2.9 4.16902e-14 0)
(2.9 5.32025e-14 0)
(2.9 1.73411e-14 0)
(2.9 -3.79561e-15 0)
(2.9 -4.01511e-14 0)
(2.9 -2.28486e-14 0)
(2.9 -1.53773e-14 0)
(2.9 -4.4494e-14 0)
(2.9 4.99173e-14 0)
(2.9 3.45374e-14 0)
(2.9 -2.48956e-14 0)
(2.9 -5.09197e-15 0)
(2.9 -3.99032e-14 0)
(2.9 -4.30405e-14 0)
(2.9 2.5215e-14 0)
(2.9 -3.76017e-14 0)
(2.9 -7.67149e-14 0)
(2.9 -5.8869e-14 0)
(2.9 4.33772e-14 0)
(2.9 1.39819e-14 0)
(2.9 5.00853e-15 0)
(2.9 -1.69562e-14 0)
(2.9 1.06097e-14 0)
(2.9 4.29492e-14 0)
(2.9 3.91802e-14 0)
(2.9 1.3181e-14 0)
(2.9 3.64012e-14 0)
(2.9 2.79161e-14 0)
(2.9 1.59789e-14 0)
(2.9 3.15953e-14 0)
(2.9 -9.86123e-15 0)
(2.9 1.20387e-14 0)
(2.9 -1.33906e-14 0)
(2.9 -8.40029e-15 0)
(2.9 1.21527e-14 0)
(2.9 3.82632e-14 0)
(2.9 -5.0058e-14 0)
(2.9 -6.99331e-14 0)
(2.9 -2.79789e-15 0)
(2.9 -5.24671e-14 0)
(2.9 -2.62181e-14 0)
(2.9 5.13225e-14 0)
(2.9 7.8023e-14 0)
(2.9 8.0659e-14 0)
(2.9 2.36657e-14 0)
(2.9 -3.09715e-14 0)
(2.9 3.65313e-14 0)
(2.9 5.61049e-14 0)
(2.9 7.649e-14 0)
(2.9 -2.01472e-14 0)
(2.9 -3.75718e-14 0)
(2.9 -9.8475e-15 0)
(2.9 5.08138e-14 0)
(2.9 3.52553e-15 0)
(2.9 -9.55397e-15 0)
(2.9 3.15329e-14 0)
(2.9 -4.96535e-14 0)
(2.9 -2.93224e-14 0)
(2.9 5.30503e-14 0)
(2.9 1.12401e-13 0)
(2.9 5.15914e-14 0)
(2.9 1.04718e-13 0)
(2.9 6.93685e-14 0)
(2.9 -1.33405e-14 0)
(2.9 -8.07893e-14 0)
(2.9 5.44807e-15 0)
(2.9 3.24003e-14 0)
(2.9 -4.2804e-15 0)
(2.9 6.38808e-14 0)
(2.9 7.37545e-14 0)
(2.9 4.44846e-14 0)
(2.9 2.25582e-14 0)
(2.9 -5.15326e-14 0)
(2.9 2.54618e-14 0)
(2.9 -8.19656e-15 0)
(2.9 -9.87868e-14 0)
(2.9 -1.63741e-13 0)
(2.9 -7.53818e-14 0)
(2.9 7.65755e-14 0)
(2.9 5.40809e-14 0)
(2.9 3.79989e-14 0)
(2.9 3.72835e-14 0)
(2.9 9.58948e-14 0)
(2.9 3.65153e-14 0)
(2.9 7.14104e-14 0)
(2.9 4.23743e-14 0)
(2.9 -4.83924e-15 0)
(2.9 7.99274e-14 0)
(2.9 4.00703e-15 0)
(2.9 7.02978e-14 0)
(2.9 1.80837e-14 0)
(2.9 -3.11236e-14 0)
(2.9 -3.87413e-14 0)
(2.9 1.06995e-14 0)
(2.9 9.41985e-14 0)
(2.9 1.01754e-13 0)
(2.9 -2.17479e-14 0)
(2.9 -5.10688e-15 0)
(2.9 -3.95388e-14 0)
(2.9 2.79628e-14 0)
(2.9 7.32032e-15 0)
(2.9 4.87485e-14 0)
(2.9 8.47531e-14 0)
(2.9 1.18644e-13 0)
(2.9 -1.33031e-15 0)
(2.9 -5.55811e-15 0)
(2.9 1.08977e-13 0)
(2.9 1.02108e-13 0)
(2.9 1.03183e-13 0)
(2.9 -1.17948e-13 0)
(2.9 -1.13482e-13 0)
(2.9 -2.48714e-14 0)
(2.9 4.13249e-14 0)
(2.9 9.8994e-15 0)
(2.9 -8.02233e-16 0)
(2.9 -9.08836e-15 0)
(2.9 -1.41021e-14 0)
(2.9 9.20089e-15 0)
(2.9 8.57391e-14 0)
(2.9 3.57659e-14 0)
(2.9 4.53038e-14 0)
(2.9 6.718e-14 0)
(2.9 3.05848e-14 0)
(2.9 -4.3923e-14 0)
(2.9 -2.71098e-14 0)
(2.9 7.37577e-14 0)
(2.9 7.06162e-14 0)
(2.9 3.00441e-14 0)
(2.9 5.84547e-14 0)
(2.9 7.74944e-14 0)
(2.9 7.67895e-14 0)
(2.9 2.12927e-14 0)
(2.9 5.39444e-14 0)
(2.9 5.99695e-14 0)
(2.9 -4.34571e-14 0)
(2.9 -6.52592e-14 0)
(2.9 -1.21844e-13 0)
(2.9 -3.58435e-14 0)
(2.9 7.82689e-15 0)
(2.9 4.97323e-14 0)
(2.9 2.98208e-14 0)
(2.9 -7.55698e-15 0)
(2.9 7.18284e-14 0)
(2.9 4.84463e-14 0)
(2.9 5.54882e-14 0)
(2.9 -1.24219e-14 0)
(2.9 -8.35436e-14 0)
(2.9 8.00992e-15 0)
(2.9 5.86083e-15 0)
(2.9 7.04799e-14 0)
(2.9 3.06437e-14 0)
(2.9 -2.74322e-14 0)
(2.9 -6.47359e-14 0)
(2.9 -4.0805e-14 0)
(2.9 -4.70766e-14 0)
(2.9 3.36421e-14 0)
(2.9 -2.9351e-14 0)
(2.9 9.60784e-15 0)
(2.9 -6.3582e-14 0)
(2.9 -3.15617e-14 0)
(2.9 -1.28632e-14 0)
(2.9 -1.14129e-14 0)
(2.9 4.88692e-14 0)
(2.9 -5.21916e-15 0)
(2.9 6.10752e-15 0)
(2.9 6.99619e-14 0)
(2.9 9.48869e-14 0)
(2.9 6.88485e-15 0)
(2.9 9.78331e-14 0)
(2.9 -5.98428e-14 0)
(2.9 -8.96893e-14 0)
(2.9 -2.38998e-14 0)
(2.9 2.78076e-14 0)
(2.9 6.81686e-14 0)
(2.9 2.77714e-14 0)
(2.9 -3.66676e-14 0)
(2.9 2.138e-15 0)
(2.9 1.79762e-14 0)
(2.9 5.13813e-14 0)
(2.9 -2.39747e-14 0)
(2.9 1.87355e-14 0)
(2.9 5.12952e-15 0)
(2.9 6.80172e-14 0)
(2.9 7.52109e-14 0)
(2.9 3.80484e-14 0)
(2.9 3.95633e-14 0)
(2.9 4.62943e-14 0)
(2.9 4.84145e-14 0)
(2.9 8.8234e-14 0)
(2.9 7.83092e-14 0)
(2.9 3.49416e-14 0)
(2.9 1.29056e-14 0)
(2.9 6.88791e-14 0)
(2.9 4.22049e-14 0)
(2.9 2.18485e-14 0)
(2.9 2.30712e-14 0)
(2.9 6.3434e-14 0)
(2.9 2.32766e-14 0)
(2.9 7.53149e-15 0)
(2.9 1.28965e-14 0)
(2.9 5.5419e-14 0)
(2.9 -8.64152e-15 0)
(2.9 2.8263e-14 0)
(2.9 6.87606e-14 0)
(2.9 -3.91505e-14 0)
(2.9 -4.85833e-14 0)
(2.9 -3.86074e-14 0)
(2.9 -1.48892e-14 0)
(2.9 -1.7859e-14 0)
(2.9 -3.22711e-14 0)
(2.9 1.32758e-14 0)
(2.9 -5.1502e-14 0)
(2.9 -1.47882e-14 0)
(2.9 -6.20811e-14 0)
(2.9 -1.45626e-13 0)
(2.9 -3.72003e-14 0)
(2.9 -6.5703e-14 0)
(2.9 1.22979e-14 0)
(2.9 -5.33531e-14 0)
(2.9 -2.31371e-14 0)
(2.9 -4.87951e-14 0)
(2.9 3.81145e-15 0)
(2.9 1.88895e-14 0)
(2.9 -1.14013e-13 0)
(2.9 -6.71689e-15 0)
(2.9 7.16326e-14 0)
(2.9 4.40612e-14 0)
(2.9 -4.40183e-14 0)
(2.9 -5.53513e-14 0)
(2.9 -9.16801e-15 0)
(2.9 -7.00257e-14 0)
(2.9 3.6126e-14 0)
(2.9 -7.65047e-15 0)
(2.9 2.11784e-14 0)
(2.9 3.3765e-14 0)
(2.9 2.72061e-14 0)
(2.9 1.81348e-14 0)
(2.9 1.58221e-14 0)
(2.9 2.33077e-15 0)
(2.9 4.1458e-14 0)
(2.9 2.21346e-14 0)
(2.9 -3.12775e-15 0)
(2.9 1.22321e-13 0)
(2.9 1.34752e-13 0)
(2.9 5.8065e-14 0)
(2.9 -1.08683e-13 0)
(2.9 -4.80234e-15 0)
(2.9 1.3379e-13 0)
(2.9 6.73324e-14 0)
(2.9 2.92132e-14 0)
(2.9 -1.20183e-14 0)
(2.9 3.46098e-14 0)
(2.9 2.89503e-14 0)
(2.9 -2.81942e-14 0)
(2.9 3.19439e-14 0)
(2.9 8.64747e-14 0)
(2.9 1.86158e-13 0)
(2.9 5.47534e-14 0)
(2.9 3.59199e-14 0)
(2.9 -1.1315e-14 0)
(2.9 8.97345e-14 0)
(2.9 2.88544e-14 0)
(2.9 -3.03495e-14 0)
(2.9 5.09959e-14 0)
(2.9 -6.68512e-14 0)
(2.9 -4.12931e-14 0)
(2.9 6.45378e-14 0)
(2.9 -4.79794e-14 0)
(2.9 -2.81026e-14 0)
(2.9 -1.19487e-13 0)
(2.9 -4.28329e-14 0)
(2.9 -9.44177e-14 0)
(2.9 5.56136e-14 0)
(2.9 3.11479e-14 0)
(2.9 -2.75283e-14 0)
(2.9 -5.73645e-14 0)
(2.9 -5.58679e-14 0)
(2.9 -7.05441e-15 0)
(2.9 1.59123e-14 0)
(2.9 3.22021e-14 0)
(2.9 -7.18128e-14 0)
(2.9 4.26212e-14 0)
(2.9 -5.31973e-14 0)
(2.9 -8.09748e-14 0)
(2.9 8.77438e-15 0)
(2.9 3.95015e-14 0)
(2.9 7.93134e-14 0)
(2.9 -2.72489e-14 0)
(2.9 -1.70259e-13 0)
(2.9 -2.9998e-14 0)
(2.9 -3.22162e-14 0)
(2.9 -3.05451e-15 0)
(2.9 -7.30558e-14 0)
(2.9 6.66764e-15 0)
(2.9 1.8483e-14 0)
(2.9 4.3204e-14 0)
(2.9 3.77095e-14 0)
(2.9 1.07423e-13 0)
(2.9 3.3646e-14 0)
(2.9 2.04949e-14 0)
(2.9 5.28348e-15 0)
(2.9 2.41751e-14 0)
(2.9 2.58985e-14 0)
(2.9 5.64732e-14 0)
(2.9 2.71696e-14 0)
(2.9 -4.20491e-14 0)
(2.9 1.9785e-14 0)
(2.9 6.10147e-14 0)
(2.9 2.80109e-15 0)
(2.9 8.27432e-15 0)
(2.9 -2.77078e-14 0)
(2.9 3.32661e-14 0)
(2.9 8.36722e-14 0)
(2.9 3.20237e-14 0)
(2.9 2.44953e-14 0)
(2.9 7.2985e-14 0)
(2.9 8.59836e-14 0)
(2.9 4.05812e-14 0)
(2.9 5.04601e-14 0)
(2.9 6.31238e-14 0)
(2.9 8.37221e-14 0)
(2.9 1.50285e-14 0)
(2.9 -1.37165e-14 0)
(2.9 5.29039e-14 0)
(2.9 -1.89656e-14 0)
(2.9 -3.47522e-14 0)
(2.9 4.68447e-14 0)
(2.9 -2.3964e-14 0)
(2.9 -1.83225e-14 0)
(2.9 -6.87775e-14 0)
(2.9 1.42422e-14 0)
(2.9 -5.57262e-15 0)
(2.9 2.53834e-14 0)
(2.9 2.7004e-14 0)
(2.9 3.6689e-14 0)
(2.9 -3.24169e-14 0)
(2.9 1.08037e-15 0)
(2.9 3.88932e-14 0)
(2.9 3.4816e-14 0)
(2.9 7.96148e-15 0)
(2.9 1.26922e-14 0)
(2.9 2.91921e-14 0)
(2.9 -6.31241e-14 0)
(2.9 1.26006e-14 0)
(2.9 3.87186e-14 0)
(2.9 8.18888e-15 0)
(2.9 3.50938e-14 0)
(2.9 -5.20078e-14 0)
(2.9 -1.38975e-13 0)
(2.9 -3.57396e-14 0)
(2.9 -2.2523e-14 0)
(2.9 -3.16649e-14 0)
(2.9 -1.1054e-13 0)
(2.9 -2.07277e-14 0)
(2.9 3.80847e-15 0)
(2.9 -6.02538e-15 0)
(2.9 -5.89142e-15 0)
(2.9 8.6271e-14 0)
(2.9 2.63908e-14 0)
(2.9 -5.40788e-14 0)
(2.9 -1.9058e-14 0)
(2.9 -7.69628e-15 0)
(2.9 -6.21334e-14 0)
(2.9 -2.84388e-14 0)
(2.9 -2.94437e-15 0)
(2.9 2.84379e-14 0)
(2.9 9.23006e-15 0)
(2.9 -5.26383e-14 0)
(2.9 1.1575e-14 0)
(2.9 2.84473e-14 0)
(2.9 -3.10733e-14 0)
(2.9 2.18231e-14 0)
(2.9 8.96446e-14 0)
(2.9 1.07175e-13 0)
(2.9 6.036e-14 0)
(2.9 -3.04258e-14 0)
(2.9 -7.74286e-14 0)
(2.9 2.83239e-14 0)
(2.9 7.23793e-14 0)
(2.9 8.26992e-14 0)
(2.9 9.03118e-14 0)
(2.9 2.8033e-14 0)
(2.9 4.11017e-14 0)
(2.9 6.83671e-14 0)
(2.9 3.69543e-14 0)
(2.9 -1.2759e-15 0)
(2.9 1.63404e-15 0)
(2.9 1.4515e-14 0)
(2.9 6.55333e-14 0)
(2.9 3.0584e-14 0)
(2.9 1.79083e-14 0)
(2.9 8.96111e-14 0)
(2.9 -1.19915e-14 0)
(2.9 -2.52359e-14 0)
(2.9 3.34548e-14 0)
(2.9 -1.82421e-16 0)
(2.9 5.60924e-14 0)
(2.9 -1.69847e-15 0)
(2.9 4.17109e-14 0)
(2.9 5.87196e-15 0)
(2.9 9.09314e-14 0)
(2.9 6.68763e-14 0)
(2.9 6.7984e-14 0)
(2.9 9.9988e-14 0)
(2.9 1.06686e-13 0)
(2.9 9.29629e-14 0)
(2.9 3.70301e-14 0)
(2.9 -4.47138e-14 0)
(2.9 -7.86141e-14 0)
(2.9 -5.66177e-14 0)
(2.9 -1.82234e-14 0)
(2.9 -9.82682e-14 0)
(2.9 -9.95806e-14 0)
(2.9 -7.98959e-14 0)
(2.9 -7.18077e-14 0)
(2.9 -3.68755e-14 0)
(2.9 -6.81713e-14 0)
(2.9 -4.65615e-15 0)
(2.9 1.17944e-14 0)
(2.9 4.52333e-15 0)
(2.9 2.75072e-14 0)
(2.9 1.44983e-14 0)
(2.9 -5.82714e-14 0)
(2.9 -4.44391e-14 0)
(2.9 6.26113e-15 0)
(2.9 6.26932e-14 0)
(2.9 -2.29019e-14 0)
(2.9 -9.16102e-14 0)
(2.9 7.84502e-15 0)
(2.9 8.24666e-14 0)
(2.9 2.22218e-17 0)
(2.9 -7.78249e-15 0)
(2.9 3.72993e-14 0)
(2.9 3.86696e-14 0)
(2.9 5.17533e-14 0)
(2.9 -4.91997e-14 0)
(2.9 -1.4806e-13 0)
(2.9 -1.6472e-14 0)
(2.9 3.3466e-14 0)
(2.9 3.75149e-14 0)
(2.9 7.88799e-14 0)
(2.9 2.61131e-14 0)
(2.9 -4.57663e-15 0)
(2.9 5.16197e-15 0)
(2.9 -1.35494e-15 0)
(2.9 -9.55925e-15 0)
(2.9 -3.83179e-14 0)
(2.9 7.85285e-14 0)
(2.9 1.61195e-13 0)
(2.9 6.59718e-14 0)
(2.9 -1.3413e-14 0)
(2.9 5.04345e-14 0)
(2.9 -3.00423e-15 0)
(2.9 -1.79819e-14 0)
(2.9 4.32265e-14 0)
(2.9 -1.66667e-14 0)
(2.9 5.58184e-14 0)
(2.9 8.48592e-15 0)
(2.9 8.07073e-14 0)
(2.9 8.36774e-14 0)
(2.9 1.24633e-13 0)
(2.9 1.20928e-13 0)
(2.9 1.23267e-13 0)
(2.9 8.79995e-14 0)
(2.9 1.53979e-13 0)
(2.9 1.42287e-13 0)
(2.9 7.14627e-14 0)
(2.9 -2.7236e-14 0)
(2.9 1.61167e-14 0)
(2.9 -2.5683e-14 0)
(2.9 -1.31659e-14 0)
(2.9 -2.23284e-14 0)
(2.9 -1.23557e-14 0)
(2.9 -6.29138e-14 0)
(2.9 -1.14977e-13 0)
(2.9 -4.31429e-14 0)
(2.9 -2.17377e-14 0)
(2.9 -7.53485e-14 0)
(2.9 -4.7174e-16 0)
(2.9 3.43812e-14 0)
(2.9 1.5769e-14 0)
(2.9 -7.30582e-15 0)
(2.9 -7.75429e-14 0)
(2.9 -2.04065e-14 0)
(2.9 6.07292e-16 0)
(2.9 3.74324e-14 0)
(2.9 5.32329e-15 0)
(2.9 -6.72335e-14 0)
(2.9 -2.61565e-14 0)
(2.9 5.85558e-14 0)
(2.9 2.1042e-14 0)
(2.9 -2.77432e-14 0)
(2.9 -1.48817e-14 0)
(2.9 -3.13583e-14 0)
(2.9 -2.74073e-14 0)
(2.9 -6.15993e-14 0)
(2.9 -1.23796e-13 0)
(2.9 -3.19115e-14 0)
(2.9 -1.97472e-14 0)
(2.9 6.53649e-15 0)
(2.9 -5.79865e-14 0)
(2.9 2.70417e-14 0)
(2.9 4.93089e-15 0)
(2.9 -6.39531e-14 0)
(2.9 2.38529e-14 0)
(2.9 7.35033e-14 0)
(2.9 1.20792e-14 0)
(2.9 5.98676e-14 0)
(2.9 1.07211e-13 0)
(2.9 6.37474e-15 0)
(2.9 -5.07578e-14 0)
(2.9 7.42648e-15 0)
(2.9 -3.62074e-14 0)
(2.9 3.51525e-14 0)
(2.9 -6.03415e-15 0)
(2.9 -6.12768e-15 0)
(2.9 5.54793e-14 0)
(2.9 -6.49842e-15 0)
(2.9 2.10564e-14 0)
(2.9 8.17725e-14 0)
(2.9 8.48305e-14 0)
(2.9 4.00717e-14 0)
(2.9 2.26497e-14 0)
(2.9 7.17046e-15 0)
(2.9 1.04451e-14 0)
(2.9 6.7345e-14 0)
(2.9 2.76597e-14 0)
(2.9 5.58565e-14 0)
(2.9 1.13005e-13 0)
(2.9 4.60663e-14 0)
(2.9 5.05367e-14 0)
(2.9 8.73231e-14 0)
(2.9 7.07051e-14 0)
(2.9 -4.74812e-14 0)
(2.9 -7.09947e-14 0)
(2.9 -4.86715e-14 0)
(2.9 9.38671e-16 0)
(2.9 -6.09042e-14 0)
(2.9 2.14915e-14 0)
(2.9 3.94114e-15 0)
(2.9 3.52914e-15 0)
(2.9 -8.07422e-14 0)
(2.9 -6.89927e-14 0)
(2.9 1.8746e-14 0)
(2.9 2.7796e-14 0)
(2.9 2.45341e-14 0)
(2.9 -5.15584e-15 0)
(2.9 -3.59969e-14 0)
(2.9 -4.46883e-14 0)
(2.9 7.22746e-14 0)
(2.9 2.41173e-14 0)
(2.9 -4.05192e-14 0)
(2.9 -8.97673e-14 0)
(2.9 -3.86367e-14 0)
(2.9 -6.8906e-14 0)
(2.9 -5.83925e-14 0)
(2.9 -5.10604e-14 0)
(2.9 8.36476e-16 0)
(2.9 -7.75088e-14 0)
(2.9 -1.94145e-14 0)
(2.9 -8.2987e-14 0)
(2.9 9.49804e-15 0)
(2.9 9.18508e-15 0)
(2.9 -5.85184e-14 0)
(2.9 5.17672e-14 0)
(2.9 1.31055e-13 0)
(2.9 4.04435e-14 0)
(2.9 5.58492e-14 0)
(2.9 2.36479e-15 0)
(2.9 -2.17716e-14 0)
(2.9 -3.23136e-14 0)
(2.9 -3.20705e-15 0)
(2.9 -6.59864e-14 0)
(2.9 2.10453e-14 0)
(2.9 -2.41713e-14 0)
(2.9 4.891e-14 0)
(2.9 9.44693e-16 0)
(2.9 -5.41186e-15 0)
(2.9 -2.15361e-14 0)
(2.9 2.45427e-14 0)
(2.9 2.90933e-16 0)
(2.9 -1.44288e-14 0)
(2.9 -5.39097e-14 0)
(2.9 -7.90462e-14 0)
(2.9 -6.25163e-14 0)
(2.9 -4.55811e-14 0)
(2.9 -5.90398e-14 0)
(2.9 5.53825e-14 0)
(2.9 1.38832e-13 0)
(2.9 1.48686e-14 0)
(2.9 6.31259e-14 0)
(2.9 9.47987e-14 0)
(2.9 8.91171e-14 0)
(2.9 1.83547e-14 0)
(2.9 5.52179e-14 0)
(2.9 -4.89126e-14 0)
(2.9 2.16855e-14 0)
(2.9 -7.67398e-14 0)
(2.9 -1.06857e-14 0)
(2.9 -2.15254e-14 0)
(2.9 -1.12452e-14 0)
(2.9 -8.67e-14 0)
(2.9 -6.81893e-14 0)
(2.9 2.64842e-14 0)
(2.9 4.82459e-14 0)
(2.9 -2.5387e-14 0)
(2.9 -3.44281e-14 0)
(2.9 -1.3441e-14 0)
(2.9 -1.20939e-14 0)
(2.9 5.45347e-14 0)
(2.9 5.13076e-14 0)
(2.9 -3.85346e-14 0)
(2.9 -1.08764e-13 0)
(2.9 -6.33976e-14 0)
(2.9 1.72058e-15 0)
(2.9 -7.2221e-14 0)
(2.9 3.1289e-14 0)
(2.9 5.4882e-14 0)
(2.9 -4.70412e-14 0)
(2.9 -3.46205e-14 0)
(2.9 -1.28783e-14 0)
(2.9 -1.35635e-14 0)
(2.9 2.51851e-14 0)
(2.9 -4.31898e-14 0)
(2.9 4.15241e-14 0)
(2.9 8.54836e-14 0)
(2.9 4.20718e-14 0)
(2.9 4.95845e-14 0)
(2.9 -2.88862e-14 0)
(2.9 -5.7789e-15 0)
(2.9 5.56831e-14 0)
(2.9 5.59352e-14 0)
(2.9 -1.4367e-14 0)
(2.9 -5.91687e-14 0)
(2.9 -2.84565e-14 0)
(2.9 8.00281e-14 0)
(2.9 1.65464e-14 0)
(2.9 4.86598e-14 0)
(2.9 -4.1355e-14 0)
(2.9 1.88265e-14 0)
(2.9 -5.8953e-15 0)
(2.9 -8.21797e-14 0)
(2.9 -5.24366e-15 0)
(2.9 -7.35579e-14 0)
(2.9 -4.84309e-14 0)
(2.9 -4.69186e-15 0)
(2.9 -8.42545e-14 0)
(2.9 -2.52655e-14 0)
(2.9 6.21317e-14 0)
(2.9 2.81079e-14 0)
(2.9 3.58337e-14 0)
(2.9 4.01087e-14 0)
(2.9 6.56634e-14 0)
(2.9 6.59055e-14 0)
(2.9 7.69832e-14 0)
(2.9 9.49312e-16 0)
(2.9 -4.8509e-14 0)
(2.9 -3.84974e-14 0)
(2.9 -5.14698e-14 0)
(2.9 -4.33175e-14 0)
(2.9 -1.24842e-14 0)
(2.9 -5.4422e-14 0)
(2.9 -5.39772e-14 0)
(2.9 -2.207e-14 0)
(2.9 -4.63573e-14 0)
(2.9 -4.80955e-14 0)
(2.9 -3.4385e-14 0)
(2.9 -3.88052e-14 0)
(2.9 -3.17034e-14 0)
(2.9 -1.89154e-14 0)
(2.9 6.90685e-14 0)
(2.9 4.51503e-14 0)
(2.9 -8.13218e-14 0)
(2.9 -1.23777e-13 0)
(2.9 -5.7922e-14 0)
(2.9 -8.22513e-15 0)
(2.9 4.44869e-14 0)
(2.9 8.68852e-14 0)
(2.9 1.97644e-14 0)
(2.9 -4.03514e-15 0)
(2.9 1.60327e-14 0)
(2.9 -2.08329e-14 0)
(2.9 -5.58449e-14 0)
(2.9 -5.2265e-14 0)
(2.9 -1.78488e-14 0)
(2.9 1.32932e-14 0)
(2.9 -1.21663e-14 0)
(2.9 -5.7903e-14 0)
(2.9 -4.49239e-14 0)
(2.9 -1.11618e-14 0)
(2.9 4.69556e-14 0)
(2.9 9.93064e-15 0)
(2.9 1.39561e-14 0)
(2.9 -2.9638e-14 0)
(2.9 -5.9571e-14 0)