/*--------------------------------*- C++ -*----------------------------------*\
| =========                 |                                                 |
| \\      /  F ield         | OpenFOAM: The Open Source CFD Toolbox           |
|  \\    /   O peration     | Version:  2412                                  |
|   \\  /    A nd           | Website:  www.openfoam.com                      |
|    \\/     M anipulation  |                                                 |
\*---------------------------------------------------------------------------*/
FoamFile
{
    version     2.0;
    format      ascii;
    arch        "LSB;label=32;scalar=64";
    class       volScalarField;
    location    "0.0150902";
    object      TTR;
}
// * * * * * * * * * * * * * * * * * * * * * * * * * * * * * * * * * * * * * //

dimensions      [0 0 0 1 0 0 0];

internalField   nonuniform List<scalar> 
100
(
299.817
298.586
295.832
292.959
290.804
289.149
287.712
286.345
284.992
283.637
282.277
280.916
279.556
278.197
276.84
275.486
274.129
272.784
271.413
270.112
268.654
267.547
265.736
265.297
262.441
263.565
258.773
261.924
255.572
259.301
253.509
256.069
251.484
252.985
249.696
249.692
247.416
247.004
245.372
244.042
242.522
241.561
240.579
238.999
237.636
236.926
235.269
233.193
233.517
234.779
233.743
231.091
227.303
228.96
239.404
243.752
229.801
215.042
224.388
251.839
254.836
224.465
204.855
222.132
259.281
261.582
225.803
202.795
217.288
253.998
264.185
236.938
208.389
209.829
238.835
263.748
255.623
223.771
203.411
210.14
240.724
271.136
274.812
248.038
212.863
200
200
205.752
278.944
376.69
402.621
416.518
411.771
420.857
410.257
421.873
404.422
423.637
404.292
413.699
)
;

boundaryField
{
    sides
    {
        type            zeroGradient;
    }
    empty
    {
        type            empty;
    }
}


// ************************************************************************* //
