/*--------------------------------*- C++ -*----------------------------------*\
| =========                 |                                                 |
| \\      /  F ield         | OpenFOAM: The Open Source CFD Toolbox           |
|  \\    /   O peration     | Version:  2412                                  |
|   \\  /    A nd           | Website:  www.openfoam.com                      |
|    \\/     M anipulation  |                                                 |
\*---------------------------------------------------------------------------*/
FoamFile
{
    version     2.0;
    format      ascii;
    arch        "LSB;label=32;scalar=64";
    class       surfaceScalarField;
    location    "0.0420863";
    object      phiRhoY_Y_N2;
}
// * * * * * * * * * * * * * * * * * * * * * * * * * * * * * * * * * * * * * //

dimensions      [1 0 -1 0 0 0 0];

internalField   nonuniform List<scalar> 
99
(
3.22194
6.36758
9.41357
12.3458
15.1801
17.9568
20.7202
23.5001
26.3125
29.1613
32.0301
34.8824
37.7876
41.2793
43.983
14.4084
-425.722
-537.942
-496.013
-432.916
-428.508
-427.335
-431.017
-462.933
-498.454
-502.811
-504.135
-501.762
-468.152
-408.52
-389.774
-389.305
-388.8
-410.839
-443.595
-450.991
-452.084
-451.045
-433.329
-413.4
-409.914
-410.728
-423.753
-428.598
-427.447
-405.301
-382.878
-379.087
-380.796
-398.898
-405.954
-405.66
-386.121
-358.207
-348.456
-348.237
-372.937
-400.73
-405.895
-402.553
-368.587
-323.691
-303.183
-302.321
-304.018
-321.692
-331.941
-336.071
-335.851
-326.715
-315.246
-310.508
-304.961
-294.998
-280.27
-270.965
-270.429
-273.661
-275.053
-269.587
-251.033
-238.72
-235.773
-246.601
-286.36
-297.427
-245.159
-133.978
-34.7987
-5.48895
-0.269448
-0.0201736
-0.0162624
-2.4747e-05
-2.21311e-05
0
0
0
0
)
;

boundaryField
{
    sides
    {
        type            calculated;
        value           uniform 0;
    }
    empty
    {
        type            empty;
    }
}


// ************************************************************************* //
