/*--------------------------------*- C++ -*----------------------------------*\
| =========                 |                                                 |
| \\      /  F ield         | OpenFOAM: The Open Source CFD Toolbox           |
|  \\    /   O peration     | Version:  2412                                  |
|   \\  /    A nd           | Website:  www.openfoam.com                      |
|    \\/     M anipulation  |                                                 |
\*---------------------------------------------------------------------------*/
FoamFile
{
    version     2.0;
    format      ascii;
    arch        "LSB;label=32;scalar=64";
    class       volScalarField;
    location    "0.0309011";
    object      TTR;
}
// * * * * * * * * * * * * * * * * * * * * * * * * * * * * * * * * * * * * * //

dimensions      [0 0 0 1 0 0 0];

internalField   nonuniform List<scalar> 
100
(
215.914
215.936
215.799
215.909
215.581
215.982
215.206
216.315
214.566
216.969
213.836
217.703
213.287
217.908
213.208
217.539
213.551
216.931
214.063
216.303
214.483
215.787
214.74
215.424
214.846
215.154
214.838
214.959
214.79
214.822
214.696
214.678
214.57
214.552
214.438
214.401
214.309
214.259
214.102
213.978
214.267
214.059
213.854
213.89
214.089
214.457
214.381
214.2
215.371
217.03
216.358
215.838
216.58
217.905
228.349
275.935
297.706
296.523
298.877
293.48
298.316
294.961
290.847
305.377
286.733
309.765
289.749
306.947
298.322
296.2
318.637
295.08
322.442
297.656
314.277
306.311
305.539
310.324
301.327
309.728
304.202
309.109
307.997
308.998
307.089
306.42
301.506
300.722
303.605
327.993
364.583
401.297
413.927
424.756
422.344
427.729
422.908
425.576
421.877
421.715
)
;

boundaryField
{
    sides
    {
        type            zeroGradient;
    }
    empty
    {
        type            empty;
    }
}


// ************************************************************************* //
