/*--------------------------------*- C++ -*----------------------------------*\
| =========                 |                                                 |
| \\      /  F ield         | OpenFOAM: The Open Source CFD Toolbox           |
|  \\    /   O peration     | Version:  2412                                  |
|   \\  /    A nd           | Website:  www.openfoam.com                      |
|    \\/     M anipulation  |                                                 |
\*---------------------------------------------------------------------------*/
FoamFile
{
    version     2.0;
    format      ascii;
    arch        "LSB;label=32;scalar=64";
    class       volScalarField;
    location    "0.0511918";
    object      p;
}
// * * * * * * * * * * * * * * * * * * * * * * * * * * * * * * * * * * * * * //

dimensions      [1 -1 -2 0 0 0 0];

internalField   nonuniform List<scalar> 
100
(
96250.3
94412.6
96045.2
92265.2
96288.1
96785.5
98873.5
93030.4
88379.5
84258.4
90534.5
95393.9
78806.8
44949.8
41882.9
41873.9
38887.5
37400.9
37049
37715.2
37722.1
39457.6
41730.3
43270.9
43248.5
43805.5
43082.5
43291.5
43243.6
43760.5
43470
43425.2
43494.2
43996.7
44554.4
45866.2
46573.5
47050.6
47015.8
46212.2
45983.8
46404.2
48258
53019.2
55048.2
55607.4
56004.8
55427.3
51509.6
47515.8
46286.8
46244.5
46522
46752.9
46792.3
46650.1
46770.7
47161.7
47639.2
48204.7
48887.9
49545.6
50096.4
50451.9
50182.8
49193.3
48424.3
48041.1
48029.6
48236.3
48687.8
49236.4
49668
50326.3
50088.4
50164.8
49310.3
49702.3
49212.4
49567.7
49626
49341.9
49854.3
49117.6
49872
49229.6
49984.2
49610.7
49731.9
49871.4
49635.7
49865.1
49461.4
49830.9
49396.8
49874
49512.7
49846.3
49666.9
49759.1
)
;

boundaryField
{
    sides
    {
        type            zeroGradient;
    }
    empty
    {
        type            empty;
    }
}


// ************************************************************************* //
