/*--------------------------------*- C++ -*----------------------------------*\
| =========                 |                                                 |
| \\      /  F ield         | OpenFOAM: The Open Source CFD Toolbox           |
|  \\    /   O peration     | Version:  2412                                  |
|   \\  /    A nd           | Website:  www.openfoam.com                      |
|    \\/     M anipulation  |                                                 |
\*---------------------------------------------------------------------------*/
FoamFile
{
    version     2.0;
    format      ascii;
    arch        "LSB;label=32;scalar=64";
    class       surfaceScalarField;
    location    "0.0516108";
    object      phiRhoY_Y_N2;
}
// * * * * * * * * * * * * * * * * * * * * * * * * * * * * * * * * * * * * * //

dimensions      [1 0 -1 0 0 0 0];

internalField   nonuniform List<scalar> 
99
(
8.98634
23.203
17.3904
11.2861
-13.4499
-3.74459
24.8325
32.0751
-12.2031
-92.0237
-86.8477
-84.9734
-137.544
-406.945
-436.744
-416.826
-415.338
-415.101
-420.523
-471.375
-508.15
-510.795
-510.804
-499.971
-483.658
-479.214
-477.857
-473.658
-458.619
-450.084
-449.579
-449.874
-463.147
-479.469
-482.128
-481.553
-462.627
-439.144
-434.95
-436.425
-506.424
-581.095
-587.452
-588.882
-585.224
-544.42
-433.599
-370.159
-353.217
-349.098
-346.657
-342.901
-333.05
-322.413
-318.837
-317.852
-318.251
-320.486
-324.789
-327.812
-328.737
-326.622
-311.623
-285.073
-262.825
-249.122
-239.972
-236.476
-235.83
-236.039
-236.809
-237.347
-230.256
-217.017
-203.346
-192.759
-184.89
-177.47
-168.614
-157.263
-136.106
-103.224
-67.8336
-35.7936
-11.7368
-1.29116
0
0
-0.523938
-0.473222
0
-0.0163374
-0.0143405
-2.14612e-05
-1.7846e-05
0
0
0
0
)
;

boundaryField
{
    sides
    {
        type            calculated;
        value           uniform 0;
    }
    empty
    {
        type            empty;
    }
}


// ************************************************************************* //
