/*--------------------------------*- C++ -*----------------------------------*\
| =========                 |                                                 |
| \\      /  F ield         | OpenFOAM: The Open Source CFD Toolbox           |
|  \\    /   O peration     | Version:  2412                                  |
|   \\  /    A nd           | Website:  www.openfoam.com                      |
|    \\/     M anipulation  |                                                 |
\*---------------------------------------------------------------------------*/
FoamFile
{
    version     2.0;
    format      ascii;
    arch        "LSB;label=32;scalar=64";
    class       volVectorField;
    location    "0.0516108";
    object      U;
}
// * * * * * * * * * * * * * * * * * * * * * * * * * * * * * * * * * * * * * //

dimensions      [0 1 -1 0 0 0 0];

internalField   nonuniform List<vector> 
100
(
(0.539587 0 0)
(4.27618 0 0)
(3.23247 0 0)
(3.7361 0 0)
(-3.00317 0 0)
(-2.0201 0 0)
(1.31102 0 0)
(10.9206 0 0)
(4.69862 0 0)
(-13.4658 0 0)
(-27.4866 0 0)
(-22.3685 0 0)
(-25.9833 0 0)
(-78.5492 0 0)
(-204.333 0 0)
(-215.898 0 0)
(-211.04 0 0)
(-209.23 0 0)
(-209.249 0 0)
(-217.14 0 0)
(-228.999 0 0)
(-230.303 0 0)
(-228.717 0 0)
(-225.431 0 0)
(-219.693 0 0)
(-216.129 0 0)
(-214.093 0 0)
(-212.04 0 0)
(-207.462 0 0)
(-202.989 0 0)
(-200.686 0 0)
(-199.578 0 0)
(-200.071 0 0)
(-203.245 0 0)
(-203.247 0 0)
(-201.659 0 0)
(-197.248 0 0)
(-189.484 0 0)
(-185.439 0 0)
(-184.398 0 0)
(-193.338 0 0)
(-212.911 0 0)
(-217.007 0 0)
(-215.603 0 0)
(-213.281 0 0)
(-206.239 0 0)
(-182.572 0 0)
(-159.926 0 0)
(-151.152 0 0)
(-147.883 0 0)
(-146.176 0 0)
(-144.266 0 0)
(-141.072 0 0)
(-137.013 0 0)
(-133.971 0 0)
(-132.736 0 0)
(-131.879 0 0)
(-131.406 0 0)
(-131.542 0 0)
(-131.633 0 0)
(-131.05 0 0)
(-129.66 0 0)
(-125.892 0 0)
(-118.061 0 0)
(-109.839 0 0)
(-104.326 0 0)
(-100.5 0 0)
(-97.8907 0 0)
(-96.8568 0 0)
(-96.1284 0 0)
(-95.5725 0 0)
(-94.6061 0 0)
(-92.3092 0 0)
(-87.8155 0 0)
(-82.8491 0 0)
(-78.002 0 0)
(-74.7066 0 0)
(-71.8292 0 0)
(-68.8419 0 0)
(-65.8046 0 0)
(-61.8356 0 0)
(-59.2828 0 0)
(-55.3184 0 0)
(-52.3637 0 0)
(-49.2113 0 0)
(-46.2965 0 0)
(-43.653 0 0)
(-39.5329 0 0)
(-36.9544 0 0)
(-33.3189 0 0)
(-30.1024 0 0)
(-26.653 0 0)
(-23.7469 0 0)
(-20.4674 0 0)
(-17.4487 0 0)
(-14.2503 0 0)
(-10.7355 0 0)
(-7.73566 0 0)
(-4.30237 0 0)
(-1.65012 0 0)
)
;

boundaryField
{
    sides
    {
        type            fixedValue;
        value           uniform (0 0 0);
    }
    empty
    {
        type            empty;
    }
}


// ************************************************************************* //
