/*--------------------------------*- C++ -*----------------------------------*\
| =========                 |                                                 |
| \\      /  F ield         | OpenFOAM: The Open Source CFD Toolbox           |
|  \\    /   O peration     | Version:  2412                                  |
|   \\  /    A nd           | Website:  www.openfoam.com                      |
|    \\/     M anipulation  |                                                 |
\*---------------------------------------------------------------------------*/
FoamFile
{
    version     2.0;
    format      ascii;
    arch        "LSB;label=32;scalar=64";
    class       volScalarField;
    location    "0.0443691";
    object      TTR;
}
// * * * * * * * * * * * * * * * * * * * * * * * * * * * * * * * * * * * * * //

dimensions      [0 0 0 1 0 0 0];

internalField   nonuniform List<scalar> 
100
(
200
200
200
200
200
200
200
237.138
248.854
254.027
250.296
254.66
255.258
259.939
257.949
260.061
258.065
257.38
253.173
253.644
253.314
255.018
256.825
260.396
261.577
262.683
263.115
262.779
262.126
262.669
263.281
264.595
265.568
266.043
265.904
264.877
264.499
265.091
266.288
267.873
268.579
268.809
267.958
266.69
266.801
267.32
269.531
271.629
272.368
272.771
271.617
269.544
268.672
269.211
269.889
271.486
273.274
274.158
274.845
275.02
275.477
275.475
276.673
276.343
276.803
275.95
277.263
278.273
279.042
281.515
279.025
283.103
277.841
284.621
281.414
288.603
290.353
288.654
293.002
284.049
286.347
275.308
279.114
276.986
282.506
291.052
306.628
334.225
359.756
378.635
385.992
392.911
391.423
395.332
390.373
393.324
389.48
391.172
390.677
390.922
)
;

boundaryField
{
    sides
    {
        type            zeroGradient;
    }
    empty
    {
        type            empty;
    }
}


// ************************************************************************* //
