/*--------------------------------*- C++ -*----------------------------------*\
| =========                 |                                                 |
| \\      /  F ield         | OpenFOAM: The Open Source CFD Toolbox           |
|  \\    /   O peration     | Version:  2412                                  |
|   \\  /    A nd           | Website:  www.openfoam.com                      |
|    \\/     M anipulation  |                                                 |
\*---------------------------------------------------------------------------*/
FoamFile
{
    version     2.0;
    format      ascii;
    arch        "LSB;label=32;scalar=64";
    class       volVectorField;
    location    "0.0141287";
    object      U;
}
// * * * * * * * * * * * * * * * * * * * * * * * * * * * * * * * * * * * * * //

dimensions      [0 1 -1 0 0 0 0];

internalField   nonuniform List<vector> 
100
(
(1.86994e-06 0 0)
(0.000418949 0 0)
(0.0362869 0 0)
(0.912467 0 0)
(6.23765 0 0)
(16.9612 0 0)
(28.0823 0 0)
(36.9721 0 0)
(44.0838 0 0)
(50.332 0 0)
(56.267 0 0)
(62.1289 0 0)
(67.9961 0 0)
(73.8827 0 0)
(79.7848 0 0)
(85.6979 0 0)
(91.6191 0 0)
(97.5497 0 0)
(103.487 0 0)
(109.442 0 0)
(115.39 0 0)
(121.386 0 0)
(127.301 0 0)
(133.377 0 0)
(139.134 0 0)
(145.372 0 0)
(150.833 0 0)
(157.27 0 0)
(162.616 0 0)
(168.902 0 0)
(174.681 0 0)
(180.342 0 0)
(186.548 0 0)
(191.974 0 0)
(198.218 0 0)
(203.63 0 0)
(209.954 0 0)
(215.538 0 0)
(221.673 0 0)
(227.388 0 0)
(233.569 0 0)
(239.456 0 0)
(245.348 0 0)
(251.14 0 0)
(257.088 0 0)
(262.669 0 0)
(267.925 0 0)
(273.698 0 0)
(278.616 0 0)
(282.111 0 0)
(283.376 0 0)
(283.076 0 0)
(284.187 0 0)
(285.796 0 0)
(285.079 0 0)
(279.336 0 0)
(277.603 0 0)
(285.933 0 0)
(289.626 0 0)
(285.655 0 0)
(276.261 0 0)
(274.975 0 0)
(287.507 0 0)
(290.605 0 0)
(285.919 0 0)
(275.721 0 0)
(275.16 0 0)
(284.983 0 0)
(290.048 0 0)
(287.896 0 0)
(277.418 0 0)
(277.266 0 0)
(279.864 0 0)
(288.324 0 0)
(287.631 0 0)
(283.839 0 0)
(276.076 0 0)
(276.593 0 0)
(277.172 0 0)
(286.569 0 0)
(287.348 0 0)
(283.745 0 0)
(283.409 0 0)
(279.371 0 0)
(279.11 0 0)
(280.106 0 0)
(281.825 0 0)
(283.865 0 0)
(280.945 0 0)
(274.12 0 0)
(125.785 0 0)
(4.98552 0 0)
(-11.4897 0 0)
(0.619193 0 0)
(7.01432 0 0)
(5.83333 0 0)
(-0.0988897 0 0)
(-0.684003 0 0)
(1.56575 0 0)
(-5.28814 0 0)
)
;

boundaryField
{
    sides
    {
        type            fixedValue;
        value           uniform (0 0 0);
    }
    empty
    {
        type            empty;
    }
}


// ************************************************************************* //
