/*--------------------------------*- C++ -*----------------------------------*\
| =========                 |                                                 |
| \\      /  F ield         | OpenFOAM: The Open Source CFD Toolbox           |
|  \\    /   O peration     | Version:  2412                                  |
|   \\  /    A nd           | Website:  www.openfoam.com                      |
|    \\/     M anipulation  |                                                 |
\*---------------------------------------------------------------------------*/
FoamFile
{
    version     2.0;
    format      ascii;
    arch        "LSB;label=32;scalar=64";
    class       volVectorField;
    location    "0.0487689";
    object      U;
}
// * * * * * * * * * * * * * * * * * * * * * * * * * * * * * * * * * * * * * //

dimensions      [0 1 -1 0 0 0 0];

internalField   nonuniform List<vector> 
100
(
(1.27159 0 0)
(-22.2236 0 0)
(-21.2096 0 0)
(-5.26155 0 0)
(24.9345 0 0)
(36.486 0 0)
(-67.6307 0 0)
(-230.069 0 0)
(-244.864 0 0)
(-243.955 0 0)
(-242.5 0 0)
(-238.52 0 0)
(-229.009 0 0)
(-222.665 0 0)
(-221.022 0 0)
(-221.358 0 0)
(-227.471 0 0)
(-229.929 0 0)
(-228.659 0 0)
(-225.305 0 0)
(-214.527 0 0)
(-206.749 0 0)
(-204.193 0 0)
(-204.455 0 0)
(-214.525 0 0)
(-223.754 0 0)
(-223.434 0 0)
(-221.434 0 0)
(-213.389 0 0)
(-194.867 0 0)
(-184.51 0 0)
(-181.433 0 0)
(-180.24 0 0)
(-180.904 0 0)
(-189.419 0 0)
(-195.887 0 0)
(-195.613 0 0)
(-193.838 0 0)
(-190.258 0 0)
(-185.852 0 0)
(-182.94 0 0)
(-180.936 0 0)
(-177.742 0 0)
(-173.118 0 0)
(-169.692 0 0)
(-168.256 0 0)
(-167.998 0 0)
(-169.872 0 0)
(-170.311 0 0)
(-168.911 0 0)
(-164.924 0 0)
(-158.178 0 0)
(-154.154 0 0)
(-153.062 0 0)
(-160.134 0 0)
(-176.092 0 0)
(-180.514 0 0)
(-179.396 0 0)
(-176.541 0 0)
(-167.478 0 0)
(-145.588 0 0)
(-127.585 0 0)
(-119.451 0 0)
(-115.489 0 0)
(-112.214 0 0)
(-109.075 0 0)
(-105.691 0 0)
(-102.797 0 0)
(-101.348 0 0)
(-100.49 0 0)
(-100.071 0 0)
(-99.1402 0 0)
(-98.7935 0 0)
(-96.1124 0 0)
(-91.8413 0 0)
(-85.0564 0 0)
(-78.7479 0 0)
(-74.0316 0 0)
(-69.0305 0 0)
(-67.4115 0 0)
(-64.9645 0 0)
(-64.3447 0 0)
(-62.2447 0 0)
(-59.9533 0 0)
(-56.3875 0 0)
(-51.6183 0 0)
(-48.3393 0 0)
(-43.4639 0 0)
(-39.6431 0 0)
(-35.9859 0 0)
(-32.8299 0 0)
(-29.0992 0 0)
(-25.7689 0 0)
(-22.222 0 0)
(-18.9958 0 0)
(-15.6612 0 0)
(-11.974 0 0)
(-8.6936 0 0)
(-4.84908 0 0)
(-1.80272 0 0)
)
;

boundaryField
{
    sides
    {
        type            fixedValue;
        value           uniform (0 0 0);
    }
    empty
    {
        type            empty;
    }
}


// ************************************************************************* //
