/*--------------------------------*- C++ -*----------------------------------*\
| =========                 |                                                 |
| \\      /  F ield         | OpenFOAM: The Open Source CFD Toolbox           |
|  \\    /   O peration     | Version:  2412                                  |
|   \\  /    A nd           | Website:  www.openfoam.com                      |
|    \\/     M anipulation  |                                                 |
\*---------------------------------------------------------------------------*/
FoamFile
{
    version     2.0;
    format      ascii;
    arch        "LSB;label=32;scalar=64";
    class       volScalarField;
    location    "0.0358141";
    object      p;
}
// * * * * * * * * * * * * * * * * * * * * * * * * * * * * * * * * * * * * * //

dimensions      [1 -1 -2 0 0 0 0];

internalField   nonuniform List<scalar> 
100
(
17569.8
17576.6
17549.4
17592.8
17515.1
17624.3
17459.7
17671.8
17389.5
17714.4
17330.7
17725.5
17309.8
17691.1
17327.6
17630.1
17358.7
17560.8
17382
17498.1
17390.3
17448.4
17386.8
17411.1
17375.4
17381.4
17357.7
17354.7
17335.7
17327.7
17311.2
17299.1
17288.2
17274.8
17273.2
17264.3
17261.1
17228.2
17405.5
27814.5
54713.2
60006.9
57797.9
57307.9
58443.6
60469.8
61867.1
62875.2
63230.1
62548.6
62678.2
63495.4
64748.2
66054.7
67514.7
68700.4
69927.8
69464.9
68726.9
67623
68876.2
69630.4
71414.4
73170.6
73053.3
76307.3
73764.4
77522.2
75338.6
78344.2
79045.5
78592.9
81910.3
78118.5
82034.5
79754.7
83283
83612.4
84658.7
85231.7
84593.4
86084.3
87046.2
89382.5
91168.5
91527.1
94471
98134.1
98613.4
99682.2
100302
100887
98141
98054.1
96972.5
98331.2
97651
97826.6
96784.8
96277.9
)
;

boundaryField
{
    sides
    {
        type            zeroGradient;
    }
    empty
    {
        type            empty;
    }
}


// ************************************************************************* //
