/*--------------------------------*- C++ -*----------------------------------*\
| =========                 |                                                 |
| \\      /  F ield         | OpenFOAM: The Open Source CFD Toolbox           |
|  \\    /   O peration     | Version:  2412                                  |
|   \\  /    A nd           | Website:  www.openfoam.com                      |
|    \\/     M anipulation  |                                                 |
\*---------------------------------------------------------------------------*/
FoamFile
{
    version     2.0;
    format      ascii;
    arch        "LSB;label=32;scalar=64";
    class       surfaceScalarField;
    location    "0.00687117";
    object      phiRhoY_Y_N2;
}
// * * * * * * * * * * * * * * * * * * * * * * * * * * * * * * * * * * * * * //

dimensions      [1 0 -1 0 0 0 0];

internalField   nonuniform List<scalar> 
99
(
-2.27374e-13
-1.02318e-12
-5.68434e-13
-2.27374e-13
-3.41061e-13
-6.82121e-13
-7.95808e-13
-6.82121e-13
-7.95808e-13
-1.02318e-12
-1.02318e-12
-7.95808e-13
-2.27374e-13
1.13687e-13
4.54747e-13
5.68434e-13
6.82121e-13
6.82121e-13
6.82121e-13
4.54747e-13
5.68434e-13
4.96811e-11
2.64594e-08
1.17246e-05
0.00369706
0.457539
10.5741
54.1072
117.346
173.802
219.044
256.744
289.871
319.775
347.131
372.023
394.631
415.226
432.907
449.533
463.795
474.122
485.336
498.022
503.465
504.368
507.686
527.067
534.381
519.231
501.085
503.334
543.686
553.625
526.388
496.189
498.144
542.03
547.924
521.658
493.981
494.181
533.965
571.718
542.849
429.72
282.69
163.294
86.8845
42.7516
19.0425
7.57935
2.85256
1.02045
0.34152
0.108662
0.0323715
0.00858529
0.0020587
0.00045884
9.7429e-05
1.72518e-05
1.2924e-06
1.12008e-09
2.18125e-17
3.16901e-31
7.81992e-51
-3.97955e-74
0
0
0
0
0
0
0
0
0
0
0
)
;

boundaryField
{
    sides
    {
        type            calculated;
        value           uniform 0;
    }
    empty
    {
        type            empty;
    }
}


// ************************************************************************* //
