/*--------------------------------*- C++ -*----------------------------------*\
| =========                 |                                                 |
| \\      /  F ield         | OpenFOAM: The Open Source CFD Toolbox           |
|  \\    /   O peration     | Version:  2412                                  |
|   \\  /    A nd           | Website:  www.openfoam.com                      |
|    \\/     M anipulation  |                                                 |
\*---------------------------------------------------------------------------*/
FoamFile
{
    version     2.0;
    format      ascii;
    arch        "LSB;label=32;scalar=64";
    class       volScalarField;
    location    "0.0121882";
    object      rho;
}
// * * * * * * * * * * * * * * * * * * * * * * * * * * * * * * * * * * * * * //

dimensions      [1 -3 0 0 0 0 0];

internalField   nonuniform List<scalar> 
100
(
1.12308
1.12308
1.12308
1.12308
1.12308
1.12308
1.12308
1.12308
1.12303
1.12114
1.10603
1.07109
1.03302
1.00234
0.977938
0.956787
0.937046
0.917919
0.899145
0.880665
0.862474
0.844576
0.826954
0.80963
0.792537
0.775814
0.759248
0.743219
0.727366
0.71183
0.697178
0.681328
0.668033
0.65289
0.638996
0.626317
0.612129
0.599135
0.585712
0.574097
0.560771
0.548087
0.535532
0.52402
0.513028
0.50364
0.491864
0.477977
0.467705
0.46602
0.468342
0.465814
0.450607
0.442524
0.458352
0.487532
0.483237
0.441669
0.426091
0.45793
0.501624
0.492696
0.439416
0.420764
0.448684
0.497574
0.496596
0.451443
0.424465
0.435648
0.484188
0.503894
0.484941
0.432569
0.412517
0.424967
0.471645
0.52521
0.535119
0.520348
0.485015
0.448589
0.422226
0.401734
0.387834
0.384525
0.383987
0.38423
0.383592
0.379152
0.376322
0.376233
0.376811
0.379351
0.387808
0.566521
0.846714
0.910732
0.870873
0.744362
)
;

boundaryField
{
    sides
    {
        type            calculated;
        value           nonuniform List<scalar> 2(0.744362 1.12308);
    }
    empty
    {
        type            empty;
    }
}


// ************************************************************************* //
