/*--------------------------------*- C++ -*----------------------------------*\
| =========                 |                                                 |
| \\      /  F ield         | OpenFOAM: The Open Source CFD Toolbox           |
|  \\    /   O peration     | Version:  2412                                  |
|   \\  /    A nd           | Website:  www.openfoam.com                      |
|    \\/     M anipulation  |                                                 |
\*---------------------------------------------------------------------------*/
FoamFile
{
    version     2.0;
    format      ascii;
    arch        "LSB;label=32;scalar=64";
    class       volVectorField;
    location    "5.73613e-05";
    object      U;
}
// * * * * * * * * * * * * * * * * * * * * * * * * * * * * * * * * * * * * * //

dimensions      [0 1 -1 0 0 0 0];

internalField   nonuniform List<vector> 
1800
(
(2.9 -4.43198e-14 0)
(2.9 1.97536e-14 0)
(2.9 2.91652e-14 0)
(2.9 -3.48623e-14 0)
(2.9 -3.38518e-14 0)
(2.9 -5.34955e-14 0)
(2.9 -7.86339e-14 0)
(2.9 -4.33783e-14 0)
(2.9 -4.11691e-14 0)
(2.9 -2.16503e-14 0)
(2.9 -1.87548e-15 0)
(2.9 -4.3677e-14 0)
(2.9 -4.66993e-14 0)
(2.9 -2.11095e-14 0)
(2.9 -4.77459e-14 0)
(2.9 1.06335e-15 0)
(2.9 -7.32233e-15 0)
(2.9 -2.28022e-14 0)
(2.9 -4.35435e-14 0)
(2.9 -2.19057e-14 0)
(2.9 -2.72046e-14 0)
(2.9 -1.49088e-14 0)
(2.9 -2.22707e-14 0)
(2.9 1.25699e-14 0)
(2.9 -1.27737e-14 0)
(2.9 -5.37195e-14 0)
(2.9 -5.74127e-14 0)
(2.9 -2.02366e-14 0)
(2.9 5.16282e-14 0)
(2.9 7.8156e-14 0)
(2.9 -6.30316e-15 0)
(2.9 2.88445e-14 0)
(2.9 -4.42054e-14 0)
(2.9 -7.55817e-14 0)
(2.9 -9.48211e-15 0)
(2.9 -4.12227e-15 0)
(2.9 -6.47604e-15 0)
(2.9 1.98946e-14 0)
(2.9 1.57467e-14 0)
(2.9 -9.80963e-15 0)
(2.9 -4.79047e-15 0)
(2.9 2.44096e-14 0)
(2.9 2.32473e-16 0)
(2.9 -3.46508e-14 0)
(2.9 -5.53502e-14 0)
(2.9 -2.33885e-14 0)
(2.9 2.44326e-14 0)
(2.9 5.20961e-14 0)
(2.9 3.21941e-14 0)
(2.9 6.52997e-14 0)
(2.9 1.421e-14 0)
(2.9 -1.35905e-14 0)
(2.9 2.44223e-14 0)
(2.9 -6.93265e-15 0)
(2.9 1.67451e-15 0)
(2.9 -9.6239e-15 0)
(2.9 -4.44656e-14 0)
(2.9 -2.46822e-14 0)
(2.9 -6.79193e-14 0)
(2.9 -8.99504e-14 0)
(2.9 -9.52861e-14 0)
(2.9 3.60425e-14 0)
(2.9 3.82934e-14 0)
(2.9 -4.28897e-14 0)
(2.9 -5.36721e-14 0)
(2.9 -1.72211e-13 0)
(2.9 -1.36819e-13 0)
(2.9 -1.05809e-13 0)
(2.9 -3.20787e-14 0)
(2.9 -2.71259e-14 0)
(2.9 7.58039e-15 0)
(2.9 -8.73742e-14 0)
(2.9 -5.69782e-14 0)
(2.9 -9.60673e-15 0)
(2.9 -9.0655e-15 0)
(2.9 2.8874e-14 0)
(2.9 -4.3798e-14 0)
(2.9 -6.4553e-14 0)
(2.9 -5.85668e-14 0)
(2.9 -2.69314e-14 0)
(2.9 -5.55392e-14 0)
(2.9 -4.26661e-14 0)
(2.9 -1.73963e-14 0)
(2.9 4.93143e-14 0)
(2.9 -5.42095e-14 0)
(2.9 -1.28558e-13 0)
(2.9 -1.31656e-13 0)
(2.9 -5.91314e-14 0)
(2.9 5.06209e-14 0)
(2.9 1.21781e-13 0)
(2.9 -1.00268e-14 0)
(2.9 3.49092e-14 0)
(2.9 -7.91894e-14 0)
(2.9 -1.7168e-13 0)
(2.9 -4.75468e-14 0)
(2.9 -3.03467e-14 0)
(2.9 -9.52368e-15 0)
(2.9 7.56216e-14 0)
(2.9 7.67229e-15 0)
(2.9 -4.99632e-14 0)
(2.9 -1.4739e-14 0)
(2.9 2.65441e-14 0)
(2.9 3.72054e-15 0)
(2.9 -1.37742e-14 0)
(2.9 -1.20266e-14 0)
(2.9 -7.53554e-14 0)
(2.9 4.46561e-14 0)
(2.9 5.48983e-14 0)
(2.9 1.15447e-13 0)
(2.9 1.12582e-13 0)
(2.9 1.01238e-14 0)
(2.9 -6.24192e-14 0)
(2.9 2.9248e-14 0)
(2.9 -5.09286e-14 0)
(2.9 -1.3826e-14 0)
(2.9 1.91856e-14 0)
(2.9 -6.14602e-14 0)
(2.9 -2.04762e-14 0)
(2.9 -1.4935e-13 0)
(2.9 -1.43902e-13 0)
(2.9 -3.20712e-14 0)
(2.9 8.39982e-16 0)
(2.9 -2.04164e-14 0)
(2.9 -1.5366e-14 0)
(2.9 -3.39773e-14 0)
(2.9 -9.35512e-14 0)
(2.9 -1.01226e-13 0)
(2.9 -5.45339e-14 0)
(2.9 1.74767e-14 0)
(2.9 -5.52732e-14 0)
(2.9 -1.74702e-14 0)
(2.9 -4.67163e-14 0)
(2.9 -2.20916e-14 0)
(2.9 -2.25342e-14 0)
(2.9 1.27791e-14 0)
(2.9 3.92213e-14 0)
(2.9 1.85211e-14 0)
(2.9 -2.795e-16 0)
(2.9 -1.39685e-14 0)
(2.9 -2.77651e-14 0)
(2.9 1.0716e-14 0)
(2.9 1.93414e-14 0)
(2.9 4.67769e-14 0)
(2.9 6.78855e-14 0)
(2.9 -9.45732e-14 0)
(2.9 -1.45193e-13 0)
(2.9 -2.79711e-14 0)
(2.9 -1.39469e-14 0)
(2.9 3.00374e-14 0)
(2.9 1.14085e-14 0)
(2.9 -1.47162e-14 0)
(2.9 -2.26103e-14 0)
(2.9 -4.91312e-14 0)
(2.9 -7.54281e-14 0)
(2.9 -4.58315e-14 0)
(2.9 -3.74945e-14 0)
(2.9 -1.50824e-14 0)
(2.9 2.37786e-14 0)
(2.9 -3.99033e-14 0)
(2.9 -7.83451e-14 0)
(2.9 -2.17848e-14 0)
(2.9 -2.41298e-14 0)
(2.9 4.6272e-14 0)
(2.9 3.38725e-14 0)
(2.9 1.10693e-14 0)
(2.9 -3.80436e-14 0)
(2.9 2.91096e-14 0)
(2.9 3.51296e-14 0)
(2.9 1.57498e-14 0)
(2.9 4.58695e-14 0)
(2.9 9.8437e-15 0)
(2.9 -1.82486e-14 0)
(2.9 -8.71279e-15 0)
(2.9 -1.13061e-14 0)
(2.9 -1.82517e-14 0)
(2.9 -1.76202e-14 0)
(2.9 4.9741e-15 0)
(2.9 8.49832e-15 0)
(2.9 -6.95614e-14 0)
(2.9 -4.32533e-14 0)
(2.9 4.78145e-15 0)
(2.9 -6.06459e-14 0)
(2.9 -8.39654e-16 0)
(2.9 -4.6114e-14 0)
(2.9 -3.39135e-14 0)
(2.9 -3.75589e-14 0)
(2.9 -9.1039e-14 0)
(2.9 -5.03348e-14 0)
(2.9 6.40774e-15 0)
(2.9 -6.93004e-14 0)
(2.9 -5.30948e-14 0)
(2.9 -5.51433e-14 0)
(2.9 -1.24416e-14 0)
(2.9 -5.4344e-14 0)
(2.9 -2.17117e-14 0)
(2.9 2.74284e-14 0)
(2.9 1.90672e-14 0)
(2.9 1.65797e-14 0)
(2.9 5.38781e-14 0)
(2.9 7.31085e-15 0)
(2.9 6.67708e-14 0)
(2.9 7.38588e-14 0)
(2.9 1.09584e-14 0)
(2.9 -1.15451e-14 0)
(2.9 -4.15099e-14 0)
(2.9 -5.60772e-14 0)
(2.9 2.64959e-14 0)
(2.9 -1.14275e-14 0)
(2.9 -1.08223e-14 0)
(2.9 -2.08521e-14 0)
(2.9 7.71726e-15 0)
(2.9 1.99912e-14 0)
(2.9 -1.68792e-14 0)
(2.9 2.20799e-14 0)
(2.9 -2.61201e-14 0)
(2.9 -1.04783e-15 0)
(2.9 3.61527e-14 0)
(2.9 3.71173e-14 0)
(2.9 -7.48494e-15 0)
(2.9 -6.31217e-14 0)
(2.9 2.08501e-17 0)
(2.9 -4.39083e-14 0)
(2.9 -4.62338e-14 0)
(2.9 -2.49585e-14 0)
(2.9 2.29202e-15 0)
(2.9 -5.89862e-14 0)
(2.9 -2.4347e-14 0)
(2.9 2.74996e-14 0)
(2.9 -7.4823e-14 0)
(2.9 -7.76773e-14 0)
(2.9 -4.248e-14 0)
(2.9 1.47044e-15 0)
(2.9 5.71564e-15 0)
(2.9 3.85938e-14 0)
(2.9 5.24342e-15 0)
(2.9 -1.91981e-14 0)
(2.9 2.9114e-14 0)
(2.9 -2.71247e-14 0)
(2.9 2.59074e-14 0)
(2.9 3.78879e-14 0)
(2.9 8.9183e-15 0)
(2.9 -9.74609e-14 0)
(2.9 9.58156e-15 0)
(2.9 -4.47645e-14 0)
(2.9 -9.24847e-15 0)
(2.9 4.78535e-15 0)
(2.9 -2.26879e-14 0)
(2.9 -4.94285e-14 0)
(2.9 -1.80616e-14 0)
(2.9 -5.7976e-14 0)
(2.9 -5.77866e-14 0)
(2.9 -3.85523e-14 0)
(2.9 2.5492e-14 0)
(2.9 1.52113e-14 0)
(2.9 -2.15131e-14 0)
(2.9 -2.05515e-14 0)
(2.9 -1.50606e-14 0)
(2.9 1.43607e-14 0)
(2.9 8.20108e-14 0)
(2.9 3.68914e-14 0)
(2.9 4.45166e-14 0)
(2.9 2.95069e-14 0)
(2.9 -4.83903e-14 0)
(2.9 -8.52101e-14 0)
(2.9 1.58102e-14 0)
(2.9 1.94553e-14 0)
(2.9 4.88009e-14 0)
(2.9 -2.45911e-14 0)
(2.9 -6.22255e-14 0)
(2.9 2.07149e-14 0)
(2.9 2.35129e-14 0)
(2.9 8.19375e-14 0)
(2.9 1.98853e-14 0)
(2.9 6.8837e-14 0)
(2.9 -9.74769e-15 0)
(2.9 2.26956e-14 0)
(2.9 6.4795e-14 0)
(2.9 2.06793e-14 0)
(2.9 8.32774e-15 0)
(2.9 -3.97121e-14 0)
(2.9 -4.90703e-14 0)
(2.9 -4.13613e-14 0)
(2.9 -1.36801e-13 0)
(2.9 -8.50466e-14 0)
(2.9 -1.68657e-14 0)
(2.9 -3.86684e-14 0)
(2.9 -2.4682e-14 0)
(2.9 -1.43328e-14 0)
(2.9 -7.01093e-14 0)
(2.9 -7.18623e-14 0)
(2.9 -1.7284e-14 0)
(2.9 3.60417e-14 0)
(2.9 -5.35226e-14 0)
(2.9 -1.49458e-15 0)
(2.9 3.60471e-14 0)
(2.9 4.13244e-14 0)
(2.9 1.50402e-14 0)
(2.9 1.17528e-14 0)
(2.9 1.91044e-14 0)
(2.9 8.75985e-14 0)
(2.9 -3.47762e-14 0)
(2.9 -7.91415e-14 0)
(2.9 -7.06092e-14 0)
(2.9 -1.88101e-14 0)
(2.9 7.03722e-14 0)
(2.9 1.79224e-14 0)
(2.9 3.56146e-14 0)
(2.9 3.14348e-14 0)
(2.9 -4.50439e-14 0)
(2.9 -6.48264e-14 0)
(2.9 -9.98643e-14 0)
(2.9 1.0466e-14 0)
(2.9 -8.26601e-15 0)
(2.9 2.43275e-14 0)
(2.9 2.64417e-14 0)
(2.9 -3.10313e-14 0)
(2.9 -2.59777e-14 0)
(2.9 9.30259e-15 0)
(2.9 1.81239e-14 0)
(2.9 5.61254e-15 0)
(2.9 -1.74807e-14 0)
(2.9 -4.44132e-14 0)
(2.9 -3.33565e-14 0)
(2.9 -4.7942e-14 0)
(2.9 -3.16645e-14 0)
(2.9 5.93383e-15 0)
(2.9 4.17137e-14 0)
(2.9 -5.6345e-15 0)
(2.9 -1.91941e-14 0)
(2.9 1.49219e-14 0)
(2.9 -2.69037e-14 0)
(2.9 9.57131e-15 0)
(2.9 1.03068e-14 0)
(2.9 1.4165e-14 0)
(2.9 -4.53422e-14 0)
(2.9 -7.90859e-14 0)
(2.9 -4.92081e-14 0)
(2.9 -5.44884e-14 0)
(2.9 -6.2528e-14 0)
(2.9 -5.08664e-14 0)
(2.9 -1.17158e-13 0)
(2.9 -4.04873e-14 0)
(2.9 -8.30195e-14 0)
(2.9 2.07627e-15 0)
(2.9 -2.38549e-14 0)
(2.9 3.57807e-14 0)
(2.9 -1.55065e-14 0)
(2.9 -5.74488e-14 0)
(2.9 -6.45602e-14 0)
(2.9 -2.81333e-14 0)
(2.9 2.23546e-14 0)
(2.9 1.41038e-14 0)
(2.9 -3.91543e-14 0)
(2.9 -5.45408e-14 0)
(2.9 -2.44804e-14 0)
(2.9 1.04579e-15 0)
(2.9 1.64114e-14 0)
(2.9 2.15072e-14 0)
(2.9 -1.67963e-14 0)
(2.9 2.63546e-15 0)
(2.9 -2.02992e-14 0)
(2.9 -1.37136e-14 0)
(2.9 -1.12778e-13 0)
(2.9 -2.44127e-15 0)
(2.9 7.98615e-14 0)
(2.9 1.30511e-14 0)
(2.9 6.17962e-14 0)
(2.9 6.55651e-14 0)
(2.9 -1.24925e-14 0)
(2.9 -4.57637e-14 0)
(2.9 -6.32995e-14 0)
(2.9 -4.64965e-14 0)
(2.9 -6.03541e-14 0)
(2.9 3.00266e-16 0)
(2.9 3.37543e-14 0)
(2.9 -1.96491e-14 0)
(2.9 -1.20097e-14 0)
(2.9 1.52563e-14 0)
(2.9 -3.33996e-14 0)
(2.9 -4.29545e-14 0)
(2.9 -9.63597e-14 0)
(2.9 -8.4671e-14 0)
(2.9 1.49374e-14 0)
(2.9 -3.23367e-14 0)
(2.9 -2.92595e-14 0)
(2.9 2.4511e-14 0)
(2.9 6.96626e-14 0)
(2.9 1.01473e-14 0)
(2.9 8.18362e-15 0)
(2.9 2.79664e-14 0)
(2.9 -6.04497e-14 0)
(2.9 -3.63229e-15 0)
(2.9 1.37453e-14 0)
(2.9 -1.14742e-14 0)
(2.9 -7.40658e-14 0)
(2.9 -1.5523e-13 0)
(2.9 -9.4385e-14 0)
(2.9 -5.43985e-14 0)
(2.9 -1.08092e-13 0)
(2.9 -5.20367e-14 0)
(2.9 -8.48748e-14 0)
(2.9 9.19931e-15 0)
(2.9 3.1434e-14 0)
(2.9 8.03062e-14 0)
(2.9 3.86786e-14 0)
(2.9 -1.85962e-15 0)
(2.9 -5.00685e-14 0)
(2.9 -3.4699e-14 0)
(2.9 -6.32428e-14 0)
(2.9 1.38194e-14 0)
(2.9 1.31e-15 0)
(2.9 -3.96527e-14 0)
(2.9 -1.81965e-14 0)
(2.9 -6.82333e-14 0)
(2.9 -7.51625e-14 0)
(2.9 -5.44775e-14 0)
(2.9 1.38483e-14 0)
(2.9 -1.74156e-14 0)
(2.9 -3.18202e-14 0)
(2.9 -3.39194e-14 0)
(2.9 -4.23209e-15 0)
(2.9 5.08555e-14 0)
(2.9 -5.13789e-14 0)
(2.9 -1.6376e-14 0)
(2.9 2.38495e-14 0)
(2.9 7.21716e-14 0)
(2.9 8.53958e-14 0)
(2.9 1.08955e-15 0)
(2.9 1.09607e-14 0)
(2.9 -7.74757e-15 0)
(2.9 -3.76781e-14 0)
(2.9 -7.02608e-14 0)
(2.9 -1.05903e-13 0)
(2.9 -6.75049e-14 0)
(2.9 -3.02881e-14 0)
(2.9 2.9301e-14 0)
(2.9 3.06786e-14 0)
(2.9 3.85715e-15 0)
(2.9 -4.73262e-14 0)
(2.9 -8.81497e-14 0)
(2.9 -5.79695e-14 0)
(2.9 -9.09604e-15 0)
(2.9 5.30754e-14 0)
(2.9 1.94159e-15 0)
(2.9 1.32349e-14 0)
(2.9 2.70733e-14 0)
(2.9 5.69711e-14 0)
(2.9 3.56192e-14 0)
(2.9 5.625e-14 0)
(2.9 5.44937e-15 0)
(2.9 -4.35262e-15 0)
(2.9 4.82969e-14 0)
(2.9 4.88467e-14 0)
(2.9 -1.28411e-15 0)
(2.9 -3.41014e-14 0)
(2.9 -3.55611e-14 0)
(2.9 -3.41092e-14 0)
(2.9 1.14578e-14 0)
(2.9 -4.19544e-14 0)
(2.9 -3.11905e-14 0)
(2.9 1.88132e-14 0)
(2.9 5.75292e-14 0)
(2.9 5.67847e-14 0)
(2.9 8.84748e-14 0)
(2.9 4.89698e-14 0)
(2.9 -2.17226e-14 0)
(2.9 -7.21196e-14 0)
(2.9 -1.30402e-14 0)
(2.9 -3.90535e-14 0)
(2.9 -5.67726e-14 0)
(2.9 2.0688e-15 0)
(2.9 -2.21074e-14 0)
(2.9 -5.68748e-14 0)
(2.9 -6.25667e-14 0)
(2.9 -5.55368e-14 0)
(2.9 -2.78952e-14 0)
(2.9 -4.77821e-14 0)
(2.9 -6.64865e-15 0)
(2.9 -2.89899e-14 0)
(2.9 -2.24878e-14 0)
(2.9 -1.02969e-14 0)
(2.9 7.26267e-14 0)
(2.9 -5.00429e-15 0)
(2.9 -1.61536e-14 0)
(2.9 -4.09001e-14 0)
(2.9 2.06489e-14 0)
(2.9 4.51916e-14 0)
(2.9 -4.88328e-14 0)
(2.9 2.45653e-14 0)
(2.9 2.29461e-14 0)
(2.9 -1.99792e-14 0)
(2.9 -8.01043e-14 0)
(2.9 -8.1214e-14 0)
(2.9 -1.0867e-13 0)
(2.9 -6.85247e-14 0)
(2.9 8.37763e-15 0)
(2.9 3.55796e-14 0)
(2.9 7.94561e-15 0)
(2.9 -3.34405e-14 0)
(2.9 -1.04495e-13 0)
(2.9 -5.24855e-15 0)
(2.9 5.3273e-14 0)
(2.9 -9.34388e-16 0)
(2.9 5.11143e-15 0)
(2.9 4.48727e-14 0)
(2.9 1.33999e-14 0)
(2.9 6.36569e-14 0)
(2.9 4.47384e-14 0)
(2.9 1.21248e-13 0)
(2.9 1.83876e-14 0)
(2.9 2.51994e-14 0)
(2.9 -9.55266e-15 0)
(2.9 4.54203e-14 0)
(2.9 -2.97988e-14 0)
(2.9 -1.85295e-14 0)
(2.9 4.87704e-14 0)
(2.9 2.39947e-14 0)
(2.9 3.02342e-14 0)
(2.9 6.60418e-14 0)
(2.9 4.64236e-14 0)
(2.9 1.96811e-14 0)
(2.9 5.80326e-14 0)
(2.9 7.55994e-14 0)
(2.9 5.21843e-14 0)
(2.9 4.41362e-14 0)
(2.9 2.52585e-14 0)
(2.9 -3.21258e-14 0)
(2.9 -3.45243e-15 0)
(2.9 5.52208e-14 0)
(2.9 4.09296e-15 0)
(2.9 1.28976e-14 0)
(2.9 2.87353e-14 0)
(2.9 -4.6207e-14 0)
(2.9 -7.688e-14 0)
(2.9 1.3417e-14 0)
(2.9 -2.6433e-14 0)
(2.9 -6.2974e-14 0)
(2.9 1.00267e-14 0)
(2.9 -2.74552e-14 0)
(2.9 -4.89087e-14 0)
(2.9 -2.68988e-14 0)
(2.9 4.25326e-14 0)
(2.9 8.28478e-14 0)
(2.9 6.12631e-14 0)
(2.9 -1.67367e-14 0)
(2.9 -2.14202e-14 0)
(2.9 -4.51995e-14 0)
(2.9 4.24045e-15 0)
(2.9 5.17127e-14 0)
(2.9 1.97208e-14 0)
(2.9 1.84229e-14 0)
(2.9 -4.18919e-14 0)
(2.9 -7.34914e-14 0)
(2.9 -3.41101e-14 0)
(2.9 -3.30006e-14 0)
(2.9 1.50046e-14 0)
(2.9 2.36124e-14 0)
(2.9 7.56665e-14 0)
(2.9 1.20721e-14 0)
(2.9 -3.93038e-14 0)
(2.9 -2.59606e-14 0)
(2.9 2.08939e-14 0)
(2.9 -3.97963e-14 0)
(2.9 -2.31072e-14 0)
(2.9 5.43447e-15 0)
(2.9 -7.93108e-15 0)
(2.9 2.95831e-14 0)
(2.9 4.21382e-14 0)
(2.9 6.57872e-14 0)
(2.9 2.90774e-14 0)
(2.9 2.45254e-15 0)
(2.9 -5.37161e-14 0)
(2.9 5.85435e-14 0)
(2.9 -1.79435e-14 0)
(2.9 2.26505e-14 0)
(2.9 5.15248e-14 0)
(2.9 3.68308e-14 0)
(2.9 1.76452e-14 0)
(2.9 2.92945e-14 0)
(2.9 6.43342e-14 0)
(2.9 4.68205e-14 0)
(2.9 3.01278e-14 0)
(2.9 5.07948e-14 0)
(2.9 1.89988e-14 0)
(2.9 1.77689e-14 0)
(2.9 7.24572e-14 0)
(2.9 -1.16104e-14 0)
(2.9 -2.7633e-14 0)
(2.9 6.68953e-14 0)
(2.9 8.39217e-14 0)
(2.9 -1.64827e-15 0)
(2.9 5.94711e-14 0)
(2.9 8.0757e-16 0)
(2.9 -2.93501e-14 0)
(2.9 4.01542e-14 0)
(2.9 -2.3867e-14 0)
(2.9 -5.19407e-14 0)
(2.9 -4.80142e-14 0)
(2.9 -1.49528e-14 0)
(2.9 8.55105e-15 0)
(2.9 -6.09459e-14 0)
(2.9 -1.29345e-14 0)
(2.9 1.0943e-13 0)
(2.9 2.78321e-14 0)
(2.9 -3.90333e-14 0)
(2.9 -2.69137e-14 0)
(2.9 1.11181e-14 0)
(2.9 6.78716e-14 0)
(2.9 5.97903e-14 0)
(2.9 1.84626e-15 0)
(2.9 1.94233e-14 0)
(2.9 1.83502e-14 0)
(2.9 1.9931e-14 0)
(2.9 4.07405e-14 0)
(2.9 3.25675e-14 0)
(2.9 6.97013e-14 0)
(2.9 -1.05556e-14 0)
(2.9 3.41945e-14 0)
(2.9 6.48688e-14 0)
(2.9 2.58741e-14 0)
(2.9 -6.48294e-14 0)
(2.9 1.40999e-14 0)
(2.9 6.56983e-15 0)
(2.9 2.67959e-14 0)
(2.9 -4.69226e-14 0)
(2.9 -1.15432e-14 0)
(2.9 -2.84014e-14 0)
(2.9 4.48332e-14 0)
(2.9 -8.05428e-15 0)
(2.9 -2.42679e-14 0)
(2.9 -3.26295e-14 0)
(2.9 -1.11212e-13 0)
(2.9 -3.78845e-14 0)
(2.9 -3.11595e-14 0)
(2.9 -2.30223e-14 0)
(2.9 4.03273e-14 0)
(2.9 3.22871e-14 0)
(2.9 8.46101e-15 0)
(2.9 6.00673e-15 0)
(2.9 3.0285e-14 0)
(2.9 7.06714e-14 0)
(2.9 -8.88456e-15 0)
(2.9 -5.34617e-15 0)
(2.9 -5.89344e-15 0)
(2.9 -2.13538e-14 0)
(2.9 4.74815e-14 0)
(2.9 -3.62276e-14 0)
(2.9 -1.20618e-14 0)
(2.9 3.54191e-14 0)
(2.9 5.67132e-14 0)
(2.9 -2.26714e-14 0)
(2.9 2.68681e-14 0)
(2.9 1.49705e-15 0)
(2.9 -6.64415e-16 0)
(2.9 5.61061e-15 0)
(2.9 -8.65139e-15 0)
(2.9 -3.42337e-14 0)
(2.9 -1.02442e-13 0)
(2.9 2.94898e-14 0)
(2.9 5.57703e-14 0)
(2.9 -3.63904e-15 0)
(2.9 3.23199e-15 0)
(2.9 -1.67687e-15 0)
(2.9 -2.11499e-14 0)
(2.9 -3.15586e-14 0)
(2.9 -5.25043e-14 0)
(2.9 4.37648e-14 0)
(2.9 7.5366e-14 0)
(2.9 6.06488e-14 0)
(2.9 -3.31196e-14 0)
(2.9 4.19966e-14 0)
(2.9 3.21588e-14 0)
(2.9 3.275e-14 0)
(2.9 6.83509e-15 0)
(2.9 -1.74429e-14 0)
(2.9 7.52737e-15 0)
(2.9 -5.12562e-14 0)
(2.9 -4.32204e-14 0)
(2.9 1.65846e-14 0)
(2.9 4.04332e-14 0)
(2.9 -2.62223e-14 0)
(2.9 -1.73126e-14 0)
(2.9 -2.43259e-14 0)
(2.9 1.64985e-14 0)
(2.9 -6.29534e-14 0)
(2.9 -5.60516e-15 0)
(2.9 -5.39296e-14 0)
(2.9 -6.44637e-15 0)
(2.9 -6.04273e-14 0)
(2.9 -2.23541e-14 0)
(2.9 1.18125e-14 0)
(2.9 -9.0285e-14 0)
(2.9 -8.36617e-14 0)
(2.9 -1.07749e-14 0)
(2.9 1.61495e-15 0)
(2.9 2.08847e-14 0)
(2.9 9.86491e-15 0)
(2.9 -6.99904e-15 0)
(2.9 1.66272e-14 0)
(2.9 -2.53268e-14 0)
(2.9 6.10469e-14 0)
(2.9 -2.00362e-14 0)
(2.9 2.53072e-14 0)
(2.9 -6.58534e-15 0)
(2.9 -1.71679e-14 0)
(2.9 -4.84006e-14 0)
(2.9 1.86884e-14 0)
(2.9 -7.77888e-15 0)
(2.9 -4.77294e-14 0)
(2.9 2.69766e-15 0)
(2.9 -5.69468e-14 0)
(2.9 -3.5601e-14 0)
(2.9 1.91383e-14 0)
(2.9 3.37435e-14 0)
(2.9 9.54594e-15 0)
(2.9 -7.94393e-15 0)
(2.9 -3.29741e-15 0)
(2.9 -3.99921e-14 0)
(2.9 4.62998e-14 0)
(2.9 6.01596e-14 0)
(2.9 5.87839e-14 0)
(2.9 1.57556e-14 0)
(2.9 -6.56713e-14 0)
(2.9 1.1835e-14 0)
(2.9 -2.67201e-15 0)
(2.9 -5.86139e-15 0)
(2.9 2.01221e-14 0)
(2.9 3.55725e-15 0)
(2.9 -2.02271e-14 0)
(2.9 -2.35474e-14 0)
(2.9 4.01838e-14 0)
(2.9 3.91142e-14 0)
(2.9 -8.57918e-15 0)
(2.9 -1.75914e-15 0)
(2.9 -1.67511e-14 0)
(2.9 -6.8736e-14 0)
(2.9 -1.75941e-14 0)
(2.9 -8.06858e-15 0)
(2.9 -1.94357e-14 0)
(2.9 2.97171e-14 0)
(2.9 2.20476e-14 0)
(2.9 -1.32453e-14 0)
(2.9 -5.94335e-15 0)
(2.9 -3.42008e-14 0)
(2.9 -4.57049e-14 0)
(2.9 1.01493e-14 0)
(2.9 -2.3994e-14 0)
(2.9 -5.55633e-14 0)
(2.9 -5.29609e-14 0)
(2.9 3.03992e-14 0)
(2.9 -4.25365e-16 0)
(2.9 7.36487e-15 0)
(2.9 -4.05269e-14 0)
(2.9 1.14447e-14 0)
(2.9 5.51117e-14 0)
(2.9 2.43026e-14 0)
(2.9 -1.08289e-14 0)
(2.9 1.80709e-14 0)
(2.9 -5.59773e-15 0)
(2.9 1.00039e-14 0)
(2.9 3.94513e-14 0)
(2.9 3.52073e-15 0)
(2.9 2.0612e-15 0)
(2.9 -8.8878e-15 0)
(2.9 1.31537e-15 0)
(2.9 2.17558e-14 0)
(2.9 1.89156e-14 0)
(2.9 -5.1404e-14 0)
(2.9 -5.77258e-14 0)
(2.9 -1.75172e-14 0)
(2.9 -4.5934e-14 0)
(2.9 -2.13789e-14 0)
(2.9 4.39286e-14 0)
(2.9 5.35368e-14 0)
(2.9 4.26502e-14 0)
(2.9 1.75905e-15 0)
(2.9 -4.69706e-14 0)
(2.9 1.0841e-14 0)
(2.9 3.55827e-14 0)
(2.9 4.2884e-14 0)
(2.9 1.04666e-14 0)
(2.9 -3.71365e-14 0)
(2.9 -1.71975e-14 0)
(2.9 2.93782e-14 0)
(2.9 -1.91211e-14 0)
(2.9 -2.47003e-14 0)
(2.9 8.3727e-15 0)
(2.9 -4.64972e-14 0)
(2.9 -3.31382e-14 0)
(2.9 4.5394e-14 0)
(2.9 8.0095e-14 0)
(2.9 6.03307e-15 0)
(2.9 7.13675e-14 0)
(2.9 2.97382e-14 0)
(2.9 -3.05153e-14 0)
(2.9 -5.82094e-14 0)
(2.9 1.68431e-14 0)
(2.9 5.44212e-14 0)
(2.9 -1.23669e-14 0)
(2.9 3.68631e-14 0)
(2.9 7.06842e-14 0)
(2.9 3.39728e-14 0)
(2.9 1.14341e-14 0)
(2.9 -5.82102e-14 0)
(2.9 2.17366e-14 0)
(2.9 -4.1309e-15 0)
(2.9 -7.56957e-14 0)
(2.9 -1.60754e-13 0)
(2.9 -2.7549e-14 0)
(2.9 5.20436e-14 0)
(2.9 1.76183e-14 0)
(2.9 1.51277e-14 0)
(2.9 4.99782e-15 0)
(2.9 6.16851e-14 0)
(2.9 2.18519e-14 0)
(2.9 3.19384e-14 0)
(2.9 -1.02607e-14 0)
(2.9 -2.44593e-14 0)
(2.9 3.54741e-14 0)
(2.9 2.73569e-14 0)
(2.9 9.50556e-14 0)
(2.9 1.75207e-14 0)
(2.9 6.50347e-15 0)
(2.9 -5.48738e-14 0)
(2.9 6.36846e-15 0)
(2.9 9.41659e-14 0)
(2.9 6.46054e-14 0)
(2.9 -4.07569e-15 0)
(2.9 -8.04554e-15 0)
(2.9 -1.1756e-14 0)
(2.9 -8.36346e-15 0)
(2.9 -1.81492e-14 0)
(2.9 3.66138e-16 0)
(2.9 8.45548e-14 0)
(2.9 8.20816e-14 0)
(2.9 -2.27908e-14 0)
(2.9 -1.31892e-14 0)
(2.9 9.30937e-14 0)
(2.9 7.71219e-14 0)
(2.9 8.75176e-14 0)
(2.9 -8.88332e-14 0)
(2.9 -7.01827e-14 0)
(2.9 -3.68787e-14 0)
(2.9 2.55495e-14 0)
(2.9 2.81552e-15 0)
(2.9 -3.99941e-14 0)
(2.9 -2.8537e-14 0)
(2.9 -8.50824e-15 0)
(2.9 9.15537e-15 0)
(2.9 7.96117e-14 0)
(2.9 5.90036e-14 0)
(2.9 1.97712e-14 0)
(2.9 3.99448e-14 0)
(2.9 6.61491e-15 0)
(2.9 -2.66177e-14 0)
(2.9 1.0214e-15 0)
(2.9 6.0228e-14 0)
(2.9 6.30326e-14 0)
(2.9 1.22437e-14 0)
(2.9 4.26443e-14 0)
(2.9 7.33717e-14 0)
(2.9 6.67563e-14 0)
(2.9 1.24537e-14 0)
(2.9 2.47926e-14 0)
(2.9 3.72223e-14 0)
(2.9 -1.13834e-14 0)
(2.9 -5.36975e-14 0)
(2.9 -1.19663e-13 0)
(2.9 -2.91706e-14 0)
(2.9 -1.01164e-14 0)
(2.9 6.74013e-15 0)
(2.9 -2.58632e-14 0)
(2.9 6.49423e-16 0)
(2.9 5.45475e-14 0)
(2.9 3.60224e-14 0)
(2.9 6.85634e-14 0)
(2.9 1.58653e-14 0)
(2.9 -8.2684e-14 0)
(2.9 2.08514e-14 0)
(2.9 4.5e-15 0)
(2.9 7.18786e-14 0)
(2.9 4.11648e-14 0)
(2.9 -4.09716e-18 0)
(2.9 -4.9103e-14 0)
(2.9 -3.49967e-14 0)
(2.9 -2.65422e-14 0)
(2.9 4.9301e-14 0)
(2.9 -1.32315e-14 0)
(2.9 2.8745e-16 0)
(2.9 -4.31061e-14 0)
(2.9 -2.63453e-14 0)
(2.9 -8.09809e-15 0)
(2.9 1.21857e-14 0)
(2.9 2.08759e-14 0)
(2.9 -4.77893e-15 0)
(2.9 7.80241e-15 0)
(2.9 6.86598e-14 0)
(2.9 9.68397e-14 0)
(2.9 2.47762e-14 0)
(2.9 7.77201e-14 0)
(2.9 -2.7722e-14 0)
(2.9 -7.23025e-14 0)
(2.9 -1.34634e-14 0)
(2.9 2.22181e-14 0)
(2.9 5.67695e-14 0)
(2.9 1.33991e-14 0)
(2.9 -4.57162e-14 0)
(2.9 -1.865e-15 0)
(2.9 -2.93818e-15 0)
(2.9 3.13749e-14 0)
(2.9 8.21292e-15 0)
(2.9 2.40626e-14 0)
(2.9 1.0776e-14 0)
(2.9 4.53255e-14 0)
(2.9 6.67599e-14 0)
(2.9 4.39283e-14 0)
(2.9 2.41774e-14 0)
(2.9 4.52645e-14 0)
(2.9 2.86582e-14 0)
(2.9 7.27367e-14 0)
(2.9 5.71805e-14 0)
(2.9 2.9554e-14 0)
(2.9 2.49706e-14 0)
(2.9 5.03726e-14 0)
(2.9 5.63138e-15 0)
(2.9 1.26643e-14 0)
(2.9 3.49757e-14 0)
(2.9 3.65428e-14 0)
(2.9 9.76078e-15 0)
(2.9 -1.50903e-14 0)
(2.9 2.16462e-14 0)
(2.9 5.50589e-14 0)
(2.9 9.34171e-15 0)
(2.9 1.64954e-14 0)
(2.9 8.4479e-14 0)
(2.9 -9.76612e-15 0)
(2.9 2.17564e-15 0)
(2.9 -8.91725e-15 0)
(2.9 -1.76725e-14 0)
(2.9 -5.47548e-15 0)
(2.9 -2.73951e-14 0)
(2.9 3.7257e-14 0)
(2.9 -3.20433e-14 0)
(2.9 -1.78128e-15 0)
(2.9 -5.13404e-14 0)
(2.9 -1.00433e-13 0)
(2.9 -2.34994e-14 0)
(2.9 -7.46113e-14 0)
(2.9 1.14341e-14 0)
(2.9 -4.21382e-14 0)
(2.9 -1.74612e-14 0)
(2.9 -3.76278e-14 0)
(2.9 4.38114e-14 0)
(2.9 -3.5065e-15 0)
(2.9 -1.02305e-13 0)
(2.9 2.32449e-14 0)
(2.9 9.84266e-14 0)
(2.9 3.40509e-14 0)
(2.9 -4.60515e-14 0)
(2.9 -5.29273e-14 0)
(2.9 5.96311e-15 0)
(2.9 -4.76995e-14 0)
(2.9 1.33448e-14 0)
(2.9 -2.1013e-14 0)
(2.9 3.72059e-14 0)
(2.9 5.27216e-14 0)
(2.9 -1.63279e-14 0)
(2.9 -5.12497e-17 0)
(2.9 -1.35882e-14 0)
(2.9 -2.91946e-14 0)
(2.9 1.44566e-15 0)
(2.9 3.97336e-14 0)
(2.9 2.95543e-16 0)
(2.9 9.71279e-14 0)
(2.9 1.1115e-13 0)
(2.9 4.15824e-14 0)
(2.9 -9.15449e-14 0)
(2.9 -1.89624e-15 0)
(2.9 1.19753e-13 0)
(2.9 5.00484e-14 0)
(2.9 6.64976e-15 0)
(2.9 -3.92551e-14 0)
(2.9 4.30851e-14 0)
(2.9 6.46576e-14 0)
(2.9 -1.76697e-14 0)
(2.9 1.48109e-14 0)
(2.9 6.26555e-14 0)
(2.9 1.91123e-13 0)
(2.9 8.58799e-14 0)
(2.9 2.50373e-14 0)
(2.9 1.42412e-14 0)
(2.9 1.39844e-13 0)
(2.9 3.69451e-14 0)
(2.9 -1.69045e-14 0)
(2.9 4.88919e-14 0)
(2.9 -6.96962e-14 0)
(2.9 -4.16133e-14 0)
(2.9 6.30417e-14 0)
(2.9 -3.42553e-14 0)
(2.9 -1.85933e-14 0)
(2.9 -1.35921e-13 0)
(2.9 -3.13802e-14 0)
(2.9 -5.83294e-14 0)
(2.9 6.09261e-14 0)
(2.9 3.2509e-14 0)
(2.9 -3.25086e-14 0)
(2.9 -4.0518e-14 0)
(2.9 -5.13179e-14 0)
(2.9 5.3998e-15 0)
(2.9 6.07579e-15 0)
(2.9 7.50285e-14 0)
(2.9 -6.13376e-14 0)
(2.9 4.13591e-14 0)
(2.9 -3.98128e-14 0)
(2.9 -8.88221e-14 0)
(2.9 1.81651e-14 0)
(2.9 3.59328e-14 0)
(2.9 5.3845e-14 0)
(2.9 -3.76927e-14 0)
(2.9 -1.69093e-13 0)
(2.9 -2.07358e-14 0)
(2.9 -1.88269e-14 0)
(2.9 2.1859e-14 0)
(2.9 -8.00031e-14 0)
(2.9 -1.63243e-14 0)
(2.9 1.75393e-14 0)
(2.9 3.74893e-14 0)
(2.9 3.61923e-14 0)
(2.9 8.09516e-14 0)
(2.9 2.07219e-14 0)
(2.9 -1.71157e-16 0)
(2.9 1.16995e-14 0)
(2.9 3.52384e-14 0)
(2.9 3.85026e-14 0)
(2.9 5.96297e-14 0)
(2.9 1.52608e-14 0)
(2.9 -1.04773e-14 0)
(2.9 4.04186e-15 0)
(2.9 5.87125e-14 0)
(2.9 -3.72212e-15 0)
(2.9 -6.77427e-15 0)
(2.9 -3.31173e-14 0)
(2.9 8.63046e-15 0)
(2.9 6.60154e-14 0)
(2.9 3.74234e-14 0)
(2.9 1.88624e-14 0)
(2.9 5.00457e-14 0)
(2.9 1.06615e-13 0)
(2.9 5.03615e-14 0)
(2.9 3.37697e-14 0)
(2.9 6.68711e-14 0)
(2.9 7.44601e-14 0)
(2.9 2.20345e-14 0)
(2.9 -1.11779e-14 0)
(2.9 4.94334e-14 0)
(2.9 -2.69612e-14 0)
(2.9 -2.7094e-14 0)
(2.9 3.25627e-14 0)
(2.9 -1.51043e-14 0)
(2.9 -2.61194e-14 0)
(2.9 -6.25363e-14 0)
(2.9 5.71174e-15 0)
(2.9 8.02417e-15 0)
(2.9 3.49583e-14 0)
(2.9 2.81695e-14 0)
(2.9 1.1219e-14 0)
(2.9 5.36432e-16 0)
(2.9 -8.12465e-15 0)
(2.9 2.66687e-14 0)
(2.9 2.53834e-14 0)
(2.9 -1.1184e-15 0)
(2.9 2.82562e-14 0)
(2.9 2.469e-14 0)
(2.9 -1.98411e-15 0)
(2.9 -5.66822e-15 0)
(2.9 2.49354e-14 0)
(2.9 -4.38333e-15 0)
(2.9 1.90689e-14 0)
(2.9 -4.583e-14 0)
(2.9 -7.38407e-14 0)
(2.9 -6.51454e-14 0)
(2.9 -7.667e-15 0)
(2.9 -1.77943e-14 0)
(2.9 -8.69706e-14 0)
(2.9 -3.24005e-14 0)
(2.9 1.76802e-14 0)
(2.9 3.23366e-14 0)
(2.9 1.10021e-14 0)
(2.9 9.09898e-14 0)
(2.9 4.31715e-14 0)
(2.9 -4.23107e-14 0)
(2.9 -1.43006e-14 0)
(2.9 -7.5853e-15 0)
(2.9 -3.80841e-14 0)
(2.9 -1.61137e-14 0)
(2.9 -2.15824e-14 0)
(2.9 2.90796e-14 0)
(2.9 6.00629e-15 0)
(2.9 -4.37237e-14 0)
(2.9 2.07274e-14 0)
(2.9 2.44736e-14 0)
(2.9 -2.98931e-14 0)
(2.9 -9.10943e-15 0)
(2.9 7.14947e-14 0)
(2.9 9.16887e-14 0)
(2.9 5.91443e-14 0)
(2.9 2.09713e-15 0)
(2.9 -5.93759e-14 0)
(2.9 -1.14487e-14 0)
(2.9 4.07037e-14 0)
(2.9 7.46599e-14 0)
(2.9 4.03508e-14 0)
(2.9 1.73818e-14 0)
(2.9 1.74719e-14 0)
(2.9 4.53493e-14 0)
(2.9 2.32318e-14 0)
(2.9 -6.15271e-15 0)
(2.9 -2.24364e-14 0)
(2.9 2.14395e-14 0)
(2.9 3.31065e-14 0)
(2.9 2.71868e-15 0)
(2.9 1.4359e-14 0)
(2.9 6.25986e-14 0)
(2.9 3.46965e-15 0)
(2.9 -1.79234e-14 0)
(2.9 3.0624e-14 0)
(2.9 -2.03255e-15 0)
(2.9 4.34723e-14 0)
(2.9 4.85439e-15 0)
(2.9 4.00957e-14 0)
(2.9 -6.52185e-15 0)
(2.9 1.00685e-13 0)
(2.9 5.90616e-14 0)
(2.9 1.08598e-13 0)
(2.9 8.74381e-14 0)
(2.9 8.07252e-14 0)
(2.9 4.98056e-14 0)
(2.9 1.87372e-14 0)
(2.9 -3.66907e-14 0)
(2.9 -3.43039e-14 0)
(2.9 -5.48605e-14 0)
(2.9 -2.72087e-14 0)
(2.9 -8.43029e-14 0)
(2.9 -7.66822e-14 0)
(2.9 -3.95547e-14 0)
(2.9 -6.91614e-14 0)
(2.9 -6.54021e-15 0)
(2.9 -6.23601e-14 0)
(2.9 -3.83265e-15 0)
(2.9 8.00774e-15 0)
(2.9 -1.86145e-14 0)
(2.9 1.93222e-14 0)
(2.9 1.02221e-14 0)
(2.9 -3.86011e-14 0)
(2.9 -3.74027e-14 0)
(2.9 -1.36075e-14 0)
(2.9 4.63089e-14 0)
(2.9 -1.94918e-14 0)
(2.9 -1.04769e-13 0)
(2.9 3.30417e-14 0)
(2.9 7.7326e-14 0)
(2.9 -2.33246e-14 0)
(2.9 2.44116e-14 0)
(2.9 5.82251e-15 0)
(2.9 3.44147e-14 0)
(2.9 7.85961e-14 0)
(2.9 -4.06745e-14 0)
(2.9 -1.4158e-13 0)
(2.9 -8.07082e-15 0)
(2.9 1.6627e-14 0)
(2.9 4.78659e-14 0)
(2.9 7.68187e-14 0)
(2.9 3.49684e-15 0)
(2.9 -1.25575e-14 0)
(2.9 -2.88586e-15 0)
(2.9 3.74122e-15 0)
(2.9 -4.12508e-15 0)
(2.9 -1.34565e-14 0)
(2.9 5.36696e-14 0)
(2.9 1.19815e-13 0)
(2.9 7.05877e-14 0)
(2.9 -2.83496e-14 0)
(2.9 2.53525e-14 0)
(2.9 -1.52333e-14 0)
(2.9 -1.19564e-14 0)
(2.9 1.47023e-14 0)
(2.9 -5.33681e-14 0)
(2.9 6.73696e-14 0)
(2.9 6.8608e-15 0)
(2.9 7.02419e-14 0)
(2.9 6.40059e-14 0)
(2.9 1.00545e-13 0)
(2.9 1.01833e-13 0)
(2.9 6.61718e-14 0)
(2.9 7.76669e-14 0)
(2.9 1.40505e-13 0)
(2.9 1.27629e-13 0)
(2.9 4.4848e-14 0)
(2.9 -3.55386e-14 0)
(2.9 1.0923e-14 0)
(2.9 -5.98069e-14 0)
(2.9 -2.30034e-14 0)
(2.9 -3.48238e-15 0)
(2.9 -1.44571e-14 0)
(2.9 -7.4327e-14 0)
(2.9 -8.5719e-14 0)
(2.9 -9.34065e-15 0)
(2.9 -9.6061e-15 0)
(2.9 -6.17679e-14 0)
(2.9 1.62051e-14 0)
(2.9 2.8307e-14 0)
(2.9 2.51449e-14 0)
(2.9 2.18862e-14 0)
(2.9 -5.25643e-14 0)
(2.9 -2.9901e-14 0)
(2.9 -2.27664e-14 0)
(2.9 3.2716e-14 0)
(2.9 3.40859e-15 0)
(2.9 -4.67871e-14 0)
(2.9 -1.06296e-14 0)
(2.9 5.39556e-14 0)
(2.9 3.91721e-14 0)
(2.9 -3.06051e-14 0)
(2.9 -1.47648e-14 0)
(2.9 -1.69957e-14 0)
(2.9 -1.66624e-14 0)
(2.9 -6.0318e-14 0)
(2.9 -8.50904e-14 0)
(2.9 -3.63446e-14 0)
(2.9 -2.70279e-14 0)
(2.9 2.26359e-15 0)
(2.9 -4.05946e-14 0)
(2.9 7.14871e-15 0)
(2.9 -7.55948e-15 0)
(2.9 -5.79767e-14 0)
(2.9 2.74927e-14 0)
(2.9 7.41105e-14 0)
(2.9 2.79195e-14 0)
(2.9 3.02026e-14 0)
(2.9 8.30117e-14 0)
(2.9 1.57369e-14 0)
(2.9 -5.27636e-14 0)
(2.9 -2.64125e-15 0)
(2.9 -1.89705e-14 0)
(2.9 3.22364e-14 0)
(2.9 -1.20792e-14 0)
(2.9 -2.44715e-14 0)
(2.9 3.28099e-14 0)
(2.9 -1.60114e-14 0)
(2.9 6.57413e-15 0)
(2.9 5.77437e-14 0)
(2.9 5.64894e-14 0)
(2.9 3.32583e-14 0)
(2.9 -2.15119e-15 0)
(2.9 -1.49669e-14 0)
(2.9 2.5017e-14 0)
(2.9 1.2455e-14 0)
(2.9 2.23789e-14 0)
(2.9 3.09933e-14 0)
(2.9 7.59675e-14 0)
(2.9 1.8948e-14 0)
(2.9 2.12448e-14 0)
(2.9 6.90686e-14 0)
(2.9 3.56496e-14 0)
(2.9 -5.91796e-14 0)
(2.9 -3.91898e-14 0)
(2.9 -5.12452e-14 0)
(2.9 6.98422e-15 0)
(2.9 -5.27004e-14 0)
(2.9 3.66034e-14 0)
(2.9 3.03228e-15 0)
(2.9 8.41576e-15 0)
(2.9 -5.86118e-14 0)
(2.9 -5.41247e-14 0)
(2.9 4.11582e-14 0)
(2.9 5.22752e-14 0)
(2.9 2.78754e-14 0)
(2.9 1.19628e-15 0)
(2.9 -2.91664e-15 0)
(2.9 -3.30761e-14 0)
(2.9 3.61949e-14 0)
(2.9 2.58112e-14 0)
(2.9 -4.35952e-14 0)
(2.9 -6.2257e-14 0)
(2.9 -3.30135e-14 0)
(2.9 -6.48532e-14 0)
(2.9 -4.55301e-14 0)
(2.9 -4.28741e-14 0)
(2.9 -1.37819e-14 0)
(2.9 -3.98282e-14 0)
(2.9 -2.06036e-14 0)
(2.9 -7.00934e-14 0)
(2.9 2.58279e-14 0)
(2.9 5.77041e-15 0)
(2.9 -5.67469e-14 0)
(2.9 4.27648e-14 0)
(2.9 1.10901e-13 0)
(2.9 4.97212e-14 0)
(2.9 4.71511e-14 0)
(2.9 -1.05174e-15 0)
(2.9 -2.40027e-14 0)
(2.9 -3.96171e-14 0)
(2.9 -5.41156e-15 0)
(2.9 -5.19534e-14 0)
(2.9 -7.78663e-15 0)
(2.9 -2.17937e-14 0)
(2.9 3.09371e-14 0)
(2.9 -2.00275e-14 0)
(2.9 -4.44104e-14 0)
(2.9 -2.46713e-14 0)
(2.9 2.30224e-14 0)
(2.9 -2.07525e-15 0)
(2.9 -2.55343e-14 0)
(2.9 -4.63224e-14 0)
(2.9 -8.24443e-14 0)
(2.9 -5.99785e-14 0)
(2.9 -5.77034e-14 0)
(2.9 -6.69297e-14 0)
(2.9 6.01915e-14 0)
(2.9 1.17617e-13 0)
(2.9 1.58763e-14 0)
(2.9 3.56446e-14 0)
(2.9 6.49847e-14 0)
(2.9 9.95381e-14 0)
(2.9 3.83104e-14 0)
(2.9 3.9327e-14 0)
(2.9 -5.82161e-14 0)
(2.9 -1.94136e-15 0)
(2.9 -5.46181e-14 0)
(2.9 2.0299e-15 0)
(2.9 -1.78041e-14 0)
(2.9 -2.39268e-14 0)
(2.9 -7.98175e-14 0)
(2.9 -5.66729e-14 0)
(2.9 6.04717e-14 0)
(2.9 4.10678e-14 0)
(2.9 -3.77552e-14 0)
(2.9 -4.45185e-14 0)
(2.9 -2.46523e-14 0)
(2.9 -2.48603e-14 0)
(2.9 -8.74304e-16 0)
(2.9 3.46753e-14 0)
(2.9 -2.85988e-14 0)
(2.9 -7.24048e-14 0)
(2.9 -2.48812e-14 0)
(2.9 -1.44584e-14 0)
(2.9 -4.42277e-14 0)
(2.9 1.36596e-14 0)
(2.9 3.48967e-14 0)
(2.9 -1.15258e-14 0)
(2.9 -2.63748e-14 0)
(2.9 -1.79773e-14 0)
(2.9 -2.51419e-14 0)
(2.9 2.88236e-14 0)
(2.9 -3.20154e-14 0)
(2.9 4.3525e-14 0)
(2.9 6.61268e-14 0)
(2.9 2.75967e-14 0)
(2.9 7.58971e-14 0)
(2.9 -2.65534e-14 0)
(2.9 -4.86494e-14 0)
(2.9 3.4351e-14 0)
(2.9 3.4008e-14 0)
(2.9 -5.59942e-14 0)
(2.9 -4.6793e-14 0)
(2.9 -3.54675e-14 0)
(2.9 9.80506e-14 0)
(2.9 1.38341e-14 0)
(2.9 3.97404e-14 0)
(2.9 -9.89795e-15 0)
(2.9 -9.3754e-15 0)
(2.9 -1.83106e-14 0)
(2.9 -7.12398e-14 0)
(2.9 -1.99613e-14 0)
(2.9 -2.00567e-14 0)
(2.9 -2.66608e-14 0)
(2.9 -4.49287e-14 0)
(2.9 -8.22977e-14 0)
(2.9 1.84592e-14 0)
(2.9 3.57828e-14 0)
(2.9 3.19771e-14 0)
(2.9 3.41245e-14 0)
(2.9 4.26248e-14 0)
(2.9 5.53854e-14 0)
(2.9 5.93989e-14 0)
(2.9 4.96686e-14 0)
(2.9 -4.16656e-14 0)
(2.9 -2.73454e-14 0)
(2.9 -2.54982e-14 0)
(2.9 -4.38448e-14 0)
(2.9 -5.8068e-14 0)
(2.9 -1.14856e-14 0)
(2.9 -4.19549e-14 0)
(2.9 -2.09567e-14 0)
(2.9 -2.76214e-14 0)
(2.9 -1.73204e-14 0)
(2.9 -3.52692e-14 0)
(2.9 -1.34331e-14 0)
(2.9 -5.20886e-14 0)
(2.9 -2.32859e-14 0)
(2.9 -3.08392e-15 0)
(2.9 7.28944e-14 0)
(2.9 4.50394e-14 0)
(2.9 -4.96218e-14 0)
(2.9 -9.43141e-14 0)
(2.9 -4.57645e-14 0)
(2.9 -2.63723e-14 0)
(2.9 2.58579e-14 0)
(2.9 6.36289e-14 0)
(2.9 1.14638e-15 0)
(2.9 -1.1615e-14 0)
(2.9 8.19775e-15 0)
(2.9 -3.07766e-15 0)
(2.9 -3.16876e-14 0)
(2.9 -2.04402e-14 0)
(2.9 -2.98851e-14 0)
(2.9 -6.07547e-15 0)
(2.9 -5.64239e-15 0)
(2.9 -2.72014e-14 0)
(2.9 -1.95133e-14 0)
(2.9 1.01083e-14 0)
(2.9 4.93751e-14 0)
(2.9 2.87096e-14 0)
(2.9 1.69744e-14 0)
(2.9 -5.24332e-14 0)