/*--------------------------------*- C++ -*----------------------------------*\
| =========                 |                                                 |
| \\      /  F ield         | OpenFOAM: The Open Source CFD Toolbox           |
|  \\    /   O peration     | Version:  2412                                  |
|   \\  /    A nd           | Website:  www.openfoam.com                      |
|    \\/     M anipulation  |                                                 |
\*---------------------------------------------------------------------------*/
FoamFile
{
    version     2.0;
    format      ascii;
    arch        "LSB;label=32;scalar=64";
    class       volVectorField;
    location    "0.0271445";
    object      U;
}
// * * * * * * * * * * * * * * * * * * * * * * * * * * * * * * * * * * * * * //

dimensions      [0 1 -1 0 0 0 0];

internalField   nonuniform List<vector> 
100
(
(2.56794 0 0)
(7.77844 0 0)
(12.9551 0 0)
(18.1618 0 0)
(23.3593 0 0)
(28.6046 0 0)
(33.7745 0 0)
(39.0731 0 0)
(44.141 0 0)
(49.5678 0 0)
(54.4961 0 0)
(60.0427 0 0)
(64.8885 0 0)
(70.3926 0 0)
(75.3905 0 0)
(80.7306 0 0)
(85.9933 0 0)
(91.0679 0 0)
(96.4887 0 0)
(101.423 0 0)
(106.928 0 0)
(111.889 0 0)
(117.376 0 0)
(122.394 0 0)
(127.816 0 0)
(132.931 0 0)
(138.293 0 0)
(143.47 0 0)
(148.794 0 0)
(154.009 0 0)
(159.286 0 0)
(164.478 0 0)
(169.69 0 0)
(174.876 0 0)
(180.106 0 0)
(185.394 0 0)
(190.774 0 0)
(196.177 0 0)
(201.493 0 0)
(206.737 0 0)
(211.847 0 0)
(216.662 0 0)
(221.347 0 0)
(226.06 0 0)
(230.341 0 0)
(233.98 0 0)
(238.387 0 0)
(244.207 0 0)
(251.446 0 0)
(254.042 0 0)
(253.876 0 0)
(253.893 0 0)
(253.916 0 0)
(257.867 0 0)
(275.75 0 0)
(289.178 0 0)
(289.189 0 0)
(288.797 0 0)
(290.358 0 0)
(291.475 0 0)
(287.722 0 0)
(285.305 0 0)
(284.298 0 0)
(182.943 0 0)
(27.6721 0 0)
(6.01083 0 0)
(7.00228 0 0)
(0.775931 0 0)
(-1.24138 0 0)
(-12.5205 0 0)
(-5.22194 0 0)
(-6.23194 0 0)
(-2.33575 0 0)
(3.09603 0 0)
(-0.740632 0 0)
(8.66201 0 0)
(5.98346 0 0)
(7.50205 0 0)
(1.95191 0 0)
(-8.01858 0 0)
(-6.85345 0 0)
(-4.84923 0 0)
(2.69436 0 0)
(9.26938 0 0)
(8.1931 0 0)
(2.99117 0 0)
(-4.4487 0 0)
(-7.52546 0 0)
(-8.13841 0 0)
(-1.36637 0 0)
(3.81183 0 0)
(6.87553 0 0)
(4.35319 0 0)
(-0.829184 0 0)
(-3.70449 0 0)
(-4.18745 0 0)
(-0.813292 0 0)
(1.39004 0 0)
(2.66462 0 0)
(-0.0331047 0 0)
)
;

boundaryField
{
    sides
    {
        type            fixedValue;
        value           uniform (0 0 0);
    }
    empty
    {
        type            empty;
    }
}


// ************************************************************************* //
