/*--------------------------------*- C++ -*----------------------------------*\
| =========                 |                                                 |
| \\      /  F ield         | OpenFOAM: The Open Source CFD Toolbox           |
|  \\    /   O peration     | Version:  2412                                  |
|   \\  /    A nd           | Website:  www.openfoam.com                      |
|    \\/     M anipulation  |                                                 |
\*---------------------------------------------------------------------------*/
FoamFile
{
    version     2.0;
    format      ascii;
    arch        "LSB;label=32;scalar=64";
    class       volVectorField;
    location    "1.04293e-05";
    object      U;
}
// * * * * * * * * * * * * * * * * * * * * * * * * * * * * * * * * * * * * * //

dimensions      [0 1 -1 0 0 0 0];

internalField   nonuniform List<vector> 
1800
(
(2.9 -1.19676e-15 0)
(2.9 1.26403e-14 0)
(2.9 1.41698e-14 0)
(2.9 -6.93522e-15 0)
(2.9 -1.43877e-14 0)
(2.9 -1.03125e-14 0)
(2.9 -7.53485e-15 0)
(2.9 -5.88508e-16 0)
(2.9 -3.03067e-15 0)
(2.9 -1.4788e-14 0)
(2.9 -1.62545e-14 0)
(2.9 -9.33441e-15 0)
(2.9 -7.466e-15 0)
(2.9 -8.70674e-16 0)
(2.9 -1.29405e-14 0)
(2.9 -1.41789e-14 0)
(2.9 -3.94966e-16 0)
(2.9 -6.86378e-16 0)
(2.9 -2.29989e-14 0)
(2.9 -1.47195e-14 0)
(2.9 -4.36618e-16 0)
(2.9 -3.15566e-16 0)
(2.9 -4.40667e-17 0)
(2.9 -1.94168e-16 0)
(2.9 6.13457e-16 0)
(2.9 3.3706e-17 0)
(2.9 1.92094e-16 0)
(2.9 1.42346e-14 0)
(2.9 1.46773e-14 0)
(2.9 1.39387e-14 0)
(2.9 6.916e-16 0)
(2.9 1.35708e-14 0)
(2.9 3.06361e-16 0)
(2.9 1.92733e-16 0)
(2.9 1.41934e-14 0)
(2.9 -6.79642e-15 0)
(2.9 -1.49675e-15 0)
(2.9 1.48508e-14 0)
(2.9 1.39539e-14 0)
(2.9 5.44964e-16 0)
(2.9 7.29797e-15 0)
(2.9 1.40524e-14 0)
(2.9 3.87302e-16 0)
(2.9 3.79015e-16 0)
(2.9 -6.47662e-15 0)
(2.9 1.60898e-15 0)
(2.9 9.28594e-16 0)
(2.9 -3.32432e-16 0)
(2.9 -1.40442e-14 0)
(2.9 1.35539e-14 0)
(2.9 1.22998e-14 0)
(2.9 -1.36025e-14 0)
(2.9 -4.78407e-15 0)
(2.9 -1.56026e-15 0)
(2.9 -2.24936e-16 0)
(2.9 -2.43993e-15 0)
(2.9 9.1222e-17 0)
(2.9 -1.39046e-16 0)
(2.9 -6.26313e-15 0)
(2.9 1.37252e-14 0)
(2.9 -1.48973e-14 0)
(2.9 1.53237e-14 0)
(2.9 2.19314e-15 0)
(2.9 -9.00881e-16 0)
(2.9 -2.67182e-15 0)
(2.9 -2.68134e-14 0)
(2.9 -4.01087e-15 0)
(2.9 -2.89043e-15 0)
(2.9 -2.41e-14 0)
(2.9 -5.97364e-15 0)
(2.9 -1.80984e-14 0)
(2.9 -1.73951e-14 0)
(2.9 -3.47389e-15 0)
(2.9 -2.45322e-15 0)
(2.9 -1.7527e-14 0)
(2.9 -6.08141e-16 0)
(2.9 -5.53872e-17 0)
(2.9 -7.71424e-16 0)
(2.9 -1.94404e-14 0)
(2.9 -4.33558e-15 0)
(2.9 -4.25623e-16 0)
(2.9 -2.92196e-15 0)
(2.9 -2.75565e-16 0)
(2.9 -1.80363e-15 0)
(2.9 5.80417e-15 0)
(2.9 2.8308e-17 0)
(2.9 -1.59841e-15 0)
(2.9 1.75442e-15 0)
(2.9 2.66737e-15 0)
(2.9 -1.01528e-15 0)
(2.9 -1.20024e-16 0)
(2.9 -8.71446e-16 0)
(2.9 -4.62166e-16 0)
(2.9 -1.77764e-15 0)
(2.9 6.62806e-15 0)
(2.9 -2.87531e-15 0)
(2.9 -1.56676e-14 0)
(2.9 8.07884e-15 0)
(2.9 -8.89914e-16 0)
(2.9 -1.85862e-17 0)
(2.9 9.09209e-16 0)
(2.9 1.84797e-15 0)
(2.9 1.69485e-16 0)
(2.9 4.97588e-15 0)
(2.9 2.63762e-15 0)
(2.9 1.61224e-14 0)
(2.9 8.23883e-15 0)
(2.9 6.53458e-17 0)
(2.9 -6.72118e-15 0)
(2.9 -4.64209e-16 0)
(2.9 -1.23962e-14 0)
(2.9 -1.36385e-15 0)
(2.9 2.23286e-14 0)
(2.9 -1.31776e-14 0)
(2.9 -1.00298e-15 0)
(2.9 -2.23447e-14 0)
(2.9 1.29477e-15 0)
(2.9 1.87322e-16 0)
(2.9 1.99342e-15 0)
(2.9 -1.10359e-15 0)
(2.9 -2.12593e-15 0)
(2.9 -1.3565e-14 0)
(2.9 -3.5547e-17 0)
(2.9 -1.30092e-16 0)
(2.9 -9.29079e-16 0)
(2.9 -1.94666e-14 0)
(2.9 -1.80774e-14 0)
(2.9 -1.66291e-14 0)
(2.9 -3.95097e-15 0)
(2.9 -2.39397e-14 0)
(2.9 -1.11019e-15 0)
(2.9 -2.5874e-15 0)
(2.9 -1.61465e-14 0)
(2.9 -1.40435e-14 0)
(2.9 -3.47818e-16 0)
(2.9 1.38081e-14 0)
(2.9 3.24602e-16 0)
(2.9 -1.13372e-15 0)
(2.9 -9.3756e-15 0)
(2.9 -1.6123e-14 0)
(2.9 -1.20978e-15 0)
(2.9 -2.33956e-14 0)
(2.9 -1.17779e-15 0)
(2.9 -1.60142e-14 0)
(2.9 -1.52956e-14 0)
(2.9 -8.10749e-16 0)
(2.9 -1.37288e-14 0)
(2.9 -1.57688e-16 0)
(2.9 7.05455e-15 0)
(2.9 -2.29446e-14 0)
(2.9 -1.18678e-15 0)
(2.9 -2.04917e-14 0)
(2.9 -3.59555e-15 0)
(2.9 -1.63067e-14 0)
(2.9 -2.14588e-14 0)
(2.9 -1.46094e-14 0)
(2.9 -2.42434e-15 0)
(2.9 -7.46905e-15 0)
(2.9 -2.33251e-14 0)
(2.9 -6.94019e-16 0)
(2.9 -2.27294e-16 0)
(2.9 8.10917e-16 0)
(2.9 -6.55741e-16 0)
(2.9 -2.29755e-14 0)
(2.9 2.30248e-14 0)
(2.9 2.30794e-15 0)
(2.9 -9.25523e-17 0)
(2.9 6.03177e-16 0)
(2.9 2.18497e-14 0)
(2.9 -1.27593e-14 0)
(2.9 1.20025e-14 0)
(2.9 1.84201e-16 0)
(2.9 2.85553e-15 0)
(2.9 1.40028e-14 0)
(2.9 5.91232e-16 0)
(2.9 7.43112e-15 0)
(2.9 1.57783e-14 0)
(2.9 1.15549e-15 0)
(2.9 2.25786e-14 0)
(2.9 -2.31354e-14 0)
(2.9 -4.75458e-17 0)
(2.9 -1.71507e-15 0)
(2.9 7.61264e-16 0)
(2.9 2.2139e-17 0)
(2.9 -1.94924e-16 0)
(2.9 -2.74566e-15 0)
(2.9 -1.00579e-14 0)
(2.9 -2.48393e-15 0)
(2.9 1.37361e-15 0)
(2.9 -7.10569e-16 0)
(2.9 1.54151e-14 0)
(2.9 2.21036e-16 0)
(2.9 6.26366e-16 0)
(2.9 1.70074e-14 0)
(2.9 1.57722e-14 0)
(2.9 -1.14486e-14 0)
(2.9 -3.96097e-16 0)
(2.9 -6.36097e-15 0)
(2.9 9.41979e-15 0)
(2.9 3.40516e-16 0)
(2.9 1.0886e-17 0)
(2.9 1.57425e-17 0)
(2.9 5.99275e-18 0)
(2.9 -1.53317e-17 0)
(2.9 -1.70522e-15 0)
(2.9 3.31238e-16 0)
(2.9 1.47551e-14 0)
(2.9 -1.37712e-15 0)
(2.9 -2.03492e-15 0)
(2.9 -7.88306e-17 0)
(2.9 6.50955e-16 0)
(2.9 2.22305e-14 0)
(2.9 -2.00936e-14 0)
(2.9 -2.1293e-16 0)
(2.9 1.31751e-14 0)
(2.9 1.43761e-14 0)
(2.9 1.00519e-15 0)
(2.9 -4.70221e-16 0)
(2.9 -1.44953e-17 0)
(2.9 -1.69053e-16 0)
(2.9 -2.81624e-15 0)
(2.9 5.04138e-15 0)
(2.9 -2.66092e-16 0)
(2.9 -1.01682e-14 0)
(2.9 2.42315e-15 0)
(2.9 -2.50081e-15 0)
(2.9 -9.51809e-15 0)
(2.9 -3.1029e-16 0)
(2.9 3.18578e-16 0)
(2.9 1.33863e-14 0)
(2.9 -1.17892e-14 0)
(2.9 -6.57386e-16 0)
(2.9 -2.37905e-15 0)
(2.9 1.59307e-15 0)
(2.9 6.19504e-16 0)
(2.9 1.66119e-14 0)
(2.9 5.25552e-16 0)
(2.9 1.73901e-17 0)
(2.9 -2.48506e-17 0)
(2.9 2.32126e-17 0)
(2.9 1.70282e-15 0)
(2.9 -7.5295e-16 0)
(2.9 6.65694e-15 0)
(2.9 1.3472e-16 0)
(2.9 -5.11656e-17 0)
(2.9 -3.6686e-16 0)
(2.9 -3.64903e-16 0)
(2.9 -1.75928e-15 0)
(2.9 1.59513e-14 0)
(2.9 1.4056e-14 0)
(2.9 2.06904e-15 0)
(2.9 5.84536e-16 0)
(2.9 1.71313e-14 0)
(2.9 2.40206e-14 0)
(2.9 3.02763e-15 0)
(2.9 1.40764e-14 0)
(2.9 7.15214e-16 0)
(2.9 9.70485e-15 0)
(2.9 2.52201e-14 0)
(2.9 1.64904e-14 0)
(2.9 1.21964e-15 0)
(2.9 2.34004e-14 0)
(2.9 1.19189e-15 0)
(2.9 1.65024e-14 0)
(2.9 1.30724e-15 0)
(2.9 4.17248e-16 0)
(2.9 9.27565e-15 0)
(2.9 -1.42274e-14 0)
(2.9 -2.32761e-14 0)
(2.9 2.26676e-14 0)
(2.9 1.33407e-15 0)
(2.9 1.88909e-14 0)
(2.9 2.18815e-14 0)
(2.9 1.61624e-14 0)
(2.9 5.5374e-16 0)
(2.9 3.64716e-15 0)
(2.9 7.27667e-15 0)
(2.9 3.39541e-15 0)
(2.9 2.34926e-14 0)
(2.9 -2.30338e-17 0)
(2.9 -2.40307e-14 0)
(2.9 -2.15019e-14 0)
(2.9 -4.50236e-16 0)
(2.9 1.97565e-15 0)
(2.9 -6.85624e-17 0)
(2.9 -2.11192e-14 0)
(2.9 -1.45432e-14 0)
(2.9 -1.02888e-15 0)
(2.9 -2.23716e-14 0)
(2.9 -2.48489e-16 0)
(2.9 1.38825e-14 0)
(2.9 -2.21337e-15 0)
(2.9 -2.25582e-14 0)
(2.9 -4.23058e-16 0)
(2.9 1.51174e-16 0)
(2.9 2.77231e-15 0)
(2.9 -1.53585e-14 0)
(2.9 -1.13332e-15 0)
(2.9 -2.26672e-14 0)
(2.9 2.3371e-14 0)
(2.9 1.51611e-14 0)
(2.9 -6.41454e-15 0)
(2.9 -9.06733e-15 0)
(2.9 -2.81311e-16 0)
(2.9 -1.60221e-17 0)
(2.9 -4.15228e-16 0)
(2.9 7.49491e-15 0)
(2.9 -1.54988e-14 0)
(2.9 1.10104e-15 0)
(2.9 -1.40181e-14 0)
(2.9 -2.09774e-15 0)
(2.9 1.65771e-16 0)
(2.9 8.64241e-15 0)
(2.9 -1.33033e-14 0)
(2.9 -1.20116e-16 0)
(2.9 1.48176e-16 0)
(2.9 5.56055e-16 0)
(2.9 1.6814e-14 0)
(2.9 2.78974e-15 0)
(2.9 3.02637e-15 0)
(2.9 3.88397e-16 0)
(2.9 2.95039e-15 0)
(2.9 5.06489e-16 0)
(2.9 9.11949e-15 0)
(2.9 8.19735e-15 0)
(2.9 3.16002e-16 0)
(2.9 1.79972e-15 0)
(2.9 1.38044e-14 0)
(2.9 -2.34784e-15 0)
(2.9 2.77113e-15 0)
(2.9 2.58821e-16 0)
(2.9 1.48096e-15 0)
(2.9 2.78888e-15 0)
(2.9 1.77596e-15 0)
(2.9 -1.318e-14 0)
(2.9 1.36115e-14 0)
(2.9 -5.9775e-15 0)
(2.9 2.08094e-14 0)
(2.9 3.50733e-15 0)
(2.9 1.77121e-16 0)
(2.9 -6.7234e-16 0)
(2.9 1.29708e-14 0)
(2.9 1.28735e-15 0)
(2.9 2.63626e-14 0)
(2.9 1.58306e-15 0)
(2.9 2.11075e-14 0)
(2.9 2.12176e-14 0)
(2.9 6.60525e-16 0)
(2.9 4.88984e-15 0)
(2.9 -1.35348e-14 0)
(2.9 5.99721e-16 0)
(2.9 -1.53194e-14 0)
(2.9 6.44595e-15 0)
(2.9 2.06933e-16 0)
(2.9 1.75867e-16 0)
(2.9 9.86694e-15 0)
(2.9 -1.33457e-15 0)
(2.9 -2.46163e-16 0)
(2.9 -2.7263e-15 0)
(2.9 2.93745e-15 0)
(2.9 2.20655e-15 0)
(2.9 9.31154e-15 0)
(2.9 -1.63468e-14 0)
(2.9 -4.95578e-16 0)
(2.9 4.7922e-17 0)
(2.9 -4.80736e-15 0)
(2.9 2.77464e-15 0)
(2.9 -1.73513e-15 0)
(2.9 -2.6971e-17 0)
(2.9 -3.12024e-15 0)
(2.9 -1.57407e-14 0)
(2.9 -8.28359e-16 0)
(2.9 -6.10043e-15 0)
(2.9 -9.63873e-15 0)
(2.9 -8.41548e-16 0)
(2.9 -1.28251e-14 0)
(2.9 -1.98239e-16 0)
(2.9 1.86954e-15 0)
(2.9 -7.14082e-15 0)
(2.9 7.60718e-15 0)
(2.9 4.9292e-16 0)
(2.9 5.85419e-16 0)
(2.9 -1.02182e-16 0)
(2.9 -6.62336e-15 0)
(2.9 9.9574e-16 0)
(2.9 -3.96373e-17 0)
(2.9 2.15342e-15 0)
(2.9 1.83614e-15 0)
(2.9 2.79693e-17 0)
(2.9 3.48692e-16 0)
(2.9 -1.88176e-16 0)
(2.9 -7.39646e-15 0)
(2.9 1.7153e-16 0)
(2.9 8.46356e-16 0)
(2.9 1.33257e-14 0)
(2.9 -1.33122e-14 0)
(2.9 -1.4996e-15 0)
(2.9 -2.04337e-14 0)
(2.9 9.42747e-17 0)
(2.9 7.24049e-16 0)
(2.9 1.53426e-14 0)
(2.9 2.14536e-15 0)
(2.9 1.78264e-15 0)
(2.9 2.50586e-14 0)
(2.9 1.70097e-15 0)
(2.9 5.17782e-16 0)
(2.9 -5.20751e-15 0)
(2.9 5.61023e-17 0)
(2.9 2.94205e-15 0)
(2.9 1.36509e-14 0)
(2.9 -1.99312e-15 0)
(2.9 3.70357e-16 0)
(2.9 1.62201e-14 0)
(2.9 4.3903e-16 0)
(2.9 -1.23087e-15 0)
(2.9 1.5589e-14 0)
(2.9 2.18622e-15 0)
(2.9 7.97273e-17 0)
(2.9 -3.05554e-16 0)
(2.9 5.94643e-16 0)
(2.9 7.18972e-16 0)
(2.9 2.34521e-14 0)
(2.9 -1.36446e-15 0)
(2.9 -5.53791e-17 0)
(2.9 1.54972e-15 0)
(2.9 2.33373e-14 0)
(2.9 1.67582e-14 0)
(2.9 5.21617e-16 0)
(2.9 -1.80168e-16 0)
(2.9 -7.78098e-15 0)
(2.9 -3.68018e-16 0)
(2.9 -1.77791e-15 0)
(2.9 6.55272e-15 0)
(2.9 -1.13069e-15 0)
(2.9 -1.48363e-15 0)
(2.9 2.04921e-14 0)
(2.9 5.52164e-16 0)
(2.9 2.34145e-16 0)
(2.9 -9.25094e-16 0)
(2.9 -1.86639e-15 0)
(2.9 1.7021e-15 0)
(2.9 1.8335e-15 0)
(2.9 1.19146e-16 0)
(2.9 -9.29569e-16 0)
(2.9 1.55118e-15 0)
(2.9 -1.48239e-15 0)
(2.9 1.54876e-14 0)
(2.9 7.91494e-16 0)
(2.9 1.97134e-15 0)
(2.9 1.30353e-16 0)
(2.9 -1.61383e-16 0)
(2.9 7.49389e-16 0)
(2.9 2.01501e-16 0)
(2.9 1.9588e-15 0)
(2.9 -1.8635e-16 0)
(2.9 1.19712e-17 0)
(2.9 1.64722e-15 0)
(2.9 4.23165e-16 0)
(2.9 1.88455e-15 0)
(2.9 2.07138e-15 0)
(2.9 2.92466e-16 0)
(2.9 5.11961e-16 0)
(2.9 6.82173e-15 0)
(2.9 -1.02239e-14 0)
(2.9 6.25844e-15 0)
(2.9 -1.61819e-14 0)
(2.9 -1.14987e-15 0)
(2.9 4.22051e-16 0)
(2.9 1.58244e-14 0)
(2.9 -2.31289e-16 0)
(2.9 -2.03153e-14 0)
(2.9 1.50388e-14 0)
(2.9 7.44831e-16 0)
(2.9 -1.34275e-16 0)
(2.9 -1.40553e-14 0)
(2.9 -7.89655e-15 0)
(2.9 1.55034e-14 0)
(2.9 4.20342e-16 0)
(2.9 7.48974e-17 0)
(2.9 1.86287e-15 0)
(2.9 -1.9194e-15 0)
(2.9 -5.33451e-15 0)
(2.9 -4.09816e-16 0)
(2.9 1.6218e-16 0)
(2.9 7.09949e-15 0)
(2.9 3.2271e-15 0)
(2.9 3.3447e-15 0)
(2.9 2.14899e-15 0)
(2.9 2.67304e-16 0)
(2.9 2.35749e-15 0)
(2.9 1.50342e-14 0)
(2.9 -1.52219e-14 0)
(2.9 -2.37547e-15 0)
(2.9 -7.60799e-16 0)
(2.9 -1.59787e-14 0)
(2.9 -7.29682e-15 0)
(2.9 -1.81261e-16 0)
(2.9 5.68873e-17 0)
(2.9 3.50532e-17 0)
(2.9 -2.32003e-14 0)
(2.9 1.34958e-14 0)
(2.9 1.40484e-14 0)
(2.9 8.95655e-16 0)
(2.9 -1.47873e-15 0)
(2.9 1.22629e-14 0)
(2.9 -1.61471e-14 0)
(2.9 -5.99976e-16 0)
(2.9 4.83686e-16 0)
(2.9 1.581e-14 0)
(2.9 4.06058e-16 0)
(2.9 -1.35035e-15 0)
(2.9 1.36144e-14 0)
(2.9 9.30499e-16 0)
(2.9 1.51249e-14 0)
(2.9 -1.54526e-14 0)
(2.9 1.31812e-14 0)
(2.9 1.4789e-14 0)
(2.9 2.31644e-14 0)
(2.9 1.47249e-14 0)
(2.9 1.55685e-14 0)
(2.9 -1.3418e-14 0)
(2.9 3.1984e-16 0)
(2.9 -6.55646e-15 0)
(2.9 1.36201e-14 0)
(2.9 -6.81731e-15 0)
(2.9 -8.70789e-15 0)
(2.9 -5.49146e-16 0)
(2.9 7.79286e-17 0)
(2.9 1.14959e-15 0)
(2.9 -1.47472e-14 0)
(2.9 2.02378e-14 0)
(2.9 2.08988e-15 0)
(2.9 -1.37108e-14 0)
(2.9 1.6789e-15 0)
(2.9 1.34239e-14 0)
(2.9 -1.7663e-14 0)
(2.9 1.07808e-15 0)
(2.9 -2.92529e-16 0)
(2.9 3.71076e-16 0)
(2.9 1.42325e-14 0)
(2.9 -1.55324e-14 0)
(2.9 -3.92979e-15 0)
(2.9 -7.54985e-16 0)
(2.9 -2.07836e-16 0)
(2.9 -6.90074e-15 0)
(2.9 4.74146e-16 0)
(2.9 9.41042e-15 0)
(2.9 1.61899e-14 0)
(2.9 1.30909e-15 0)
(2.9 2.34309e-14 0)
(2.9 9.32939e-16 0)
(2.9 -5.21281e-16 0)
(2.9 -2.20164e-14 0)
(2.9 -7.11085e-16 0)
(2.9 -1.97688e-15 0)
(2.9 -1.36491e-14 0)
(2.9 -3.80274e-16 0)
(2.9 1.74664e-16 0)
(2.9 6.84643e-15 0)
(2.9 -3.13538e-15 0)
(2.9 -1.45251e-14 0)
(2.9 -1.58732e-14 0)
(2.9 4.34405e-15 0)
(2.9 -1.42172e-14 0)
(2.9 -2.23194e-14 0)
(2.9 -8.08047e-15 0)
(2.9 -1.67604e-14 0)
(2.9 -4.33522e-16 0)
(2.9 1.92891e-15 0)
(2.9 -2.51595e-16 0)
(2.9 -1.42666e-14 0)
(2.9 -1.45109e-14 0)
(2.9 4.45608e-16 0)
(2.9 -1.88719e-16 0)
(2.9 -7.6675e-15 0)
(2.9 -1.73065e-14 0)
(2.9 -1.45273e-14 0)
(2.9 -6.09551e-15 0)
(2.9 -1.57275e-14 0)
(2.9 -2.61529e-16 0)
(2.9 1.14561e-14 0)
(2.9 6.77099e-15 0)
(2.9 -9.87925e-16 0)
(2.9 -4.15003e-16 0)
(2.9 -5.73691e-16 0)
(2.9 9.35578e-15 0)
(2.9 -1.41873e-15 0)
(2.9 -1.31513e-16 0)
(2.9 -2.67128e-15 0)
(2.9 -7.64558e-17 0)
(2.9 8.31491e-16 0)
(2.9 4.86801e-16 0)
(2.9 1.1466e-14 0)
(2.9 1.39547e-14 0)
(2.9 2.48385e-15 0)
(2.9 -1.50004e-14 0)
(2.9 -2.35667e-15 0)
(2.9 -3.04179e-15 0)
(2.9 -4.36947e-16 0)
(2.9 -1.42306e-14 0)
(2.9 -2.59276e-15 0)
(2.9 -2.29302e-14 0)
(2.9 -4.78362e-15 0)
(2.9 -8.14919e-17 0)
(2.9 -8.37123e-16 0)
(2.9 1.53234e-16 0)
(2.9 6.87847e-15 0)
(2.9 2.41231e-15 0)
(2.9 1.18771e-15 0)
(2.9 6.6335e-16 0)
(2.9 -1.30174e-14 0)
(2.9 1.62388e-14 0)
(2.9 1.05017e-14 0)
(2.9 3.94586e-16 0)
(2.9 3.13985e-15 0)
(2.9 2.16656e-14 0)
(2.9 3.61797e-16 0)
(2.9 -1.62008e-16 0)
(2.9 -6.0988e-15 0)
(2.9 -5.65496e-16 0)
(2.9 -2.24187e-15 0)
(2.9 -1.62461e-14 0)
(2.9 -2.09953e-14 0)
(2.9 1.48516e-14 0)
(2.9 -1.61203e-15 0)
(2.9 2.19909e-14 0)
(2.9 -9.21858e-15 0)
(2.9 -5.19764e-16 0)
(2.9 2.21161e-16 0)
(2.9 3.82801e-16 0)
(2.9 1.35632e-14 0)
(2.9 -3.89655e-15 0)
(2.9 6.21454e-15 0)
(2.9 -1.48781e-14 0)
(2.9 1.95414e-14 0)
(2.9 -2.41742e-14 0)
(2.9 -2.67111e-15 0)
(2.9 -3.24497e-15 0)
(2.9 -1.65688e-14 0)
(2.9 -1.65637e-14 0)
(2.9 -1.98766e-14 0)
(2.9 -1.0122e-14 0)
(2.9 -2.95434e-15 0)
(2.9 -1.67367e-14 0)
(2.9 4.00909e-17 0)
(2.9 2.29755e-14 0)
(2.9 -1.31305e-14 0)
(2.9 -1.79169e-16 0)
(2.9 -2.30604e-14 0)
(2.9 1.44779e-14 0)
(2.9 -1.33816e-14 0)
(2.9 -1.08629e-15 0)
(2.9 -2.12957e-14 0)
(2.9 -1.61319e-14 0)
(2.9 7.15812e-15 0)
(2.9 2.01879e-14 0)
(2.9 -1.59503e-14 0)
(2.9 -2.39952e-14 0)
(2.9 1.51305e-16 0)
(2.9 -1.82476e-15 0)
(2.9 -1.98919e-16 0)
(2.9 6.14373e-15 0)
(2.9 2.97689e-14 0)
(2.9 8.28149e-16 0)
(2.9 -1.1726e-16 0)
(2.9 -5.09051e-16 0)
(2.9 -1.63202e-14 0)
(2.9 1.68987e-15 0)
(2.9 7.47527e-15 0)
(2.9 -1.4816e-14 0)
(2.9 1.39229e-14 0)
(2.9 8.40082e-15 0)
(2.9 -2.14166e-14 0)
(2.9 8.45616e-16 0)
(2.9 2.24486e-14 0)
(2.9 2.03853e-15 0)
(2.9 -1.82978e-15 0)
(2.9 3.63837e-17 0)
(2.9 6.04952e-15 0)
(2.9 3.26255e-16 0)
(2.9 1.81275e-16 0)
(2.9 1.38705e-14 0)
(2.9 1.2087e-14 0)
(2.9 1.57834e-14 0)
(2.9 2.99089e-16 0)
(2.9 2.68753e-15 0)
(2.9 -1.04187e-15 0)
(2.9 -1.68293e-15 0)
(2.9 -7.45405e-17 0)
(2.9 3.40509e-17 0)
(2.9 7.27074e-16 0)
(2.9 -2.21372e-14 0)
(2.9 -7.71214e-15 0)
(2.9 -2.38575e-15 0)
(2.9 -1.12224e-14 0)
(2.9 3.57304e-15 0)
(2.9 -7.3811e-16 0)
(2.9 -1.57967e-14 0)
(2.9 1.01102e-14 0)
(2.9 -1.22899e-15 0)
(2.9 2.0265e-14 0)
(2.9 -2.16191e-14 0)
(2.9 -1.68968e-14 0)
(2.9 -1.04132e-14 0)
(2.9 -5.82803e-16 0)
(2.9 -6.21592e-15 0)
(2.9 1.39038e-14 0)
(2.9 7.18851e-15 0)
(2.9 -1.42175e-15 0)
(2.9 2.08316e-15 0)
(2.9 1.18595e-14 0)
(2.9 -1.29517e-15 0)
(2.9 6.43809e-15 0)
(2.9 -1.73248e-14 0)
(2.9 -7.55391e-15 0)
(2.9 -5.59195e-15 0)
(2.9 -2.10543e-15 0)
(2.9 -1.58414e-15 0)
(2.9 7.87637e-15 0)
(2.9 -3.51991e-16 0)
(2.9 -6.69127e-16 0)
(2.9 3.49722e-15 0)
(2.9 -3.89485e-15 0)
(2.9 -4.77125e-17 0)
(2.9 -2.819e-16 0)
(2.9 -4.81847e-16 0)
(2.9 -1.52936e-14 0)
(2.9 1.35429e-14 0)
(2.9 2.72978e-16 0)
(2.9 -1.67365e-15 0)
(2.9 3.25999e-15 0)
(2.9 -8.55476e-15 0)
(2.9 6.48929e-17 0)
(2.9 6.48191e-15 0)
(2.9 -8.0658e-15 0)
(2.9 -1.00185e-14 0)
(2.9 -1.59138e-14 0)
(2.9 -6.70214e-16 0)
(2.9 -6.91472e-15 0)
(2.9 1.75957e-15 0)
(2.9 1.76032e-16 0)
(2.9 1.52551e-15 0)
(2.9 -1.24724e-14 0)
(2.9 -1.39129e-14 0)
(2.9 -2.7549e-16 0)
(2.9 1.76312e-16 0)
(2.9 4.15381e-16 0)
(2.9 -1.29738e-14 0)
(2.9 -5.27056e-16 0)
(2.9 -1.87202e-16 0)
(2.9 -2.3464e-15 0)
(2.9 1.23699e-14 0)
(2.9 -8.51342e-16 0)
(2.9 7.35208e-17 0)
(2.9 1.37779e-14 0)
(2.9 -6.81076e-15 0)
(2.9 -3.77289e-16 0)
(2.9 -2.85923e-15 0)
(2.9 -2.20841e-14 0)
(2.9 -7.30355e-16 0)
(2.9 3.08136e-15 0)
(2.9 2.06465e-14 0)
(2.9 -2.35186e-15 0)
(2.9 -1.63787e-15 0)
(2.9 -7.28614e-16 0)
(2.9 -1.44307e-14 0)
(2.9 1.15717e-15 0)
(2.9 -6.52613e-15 0)
(2.9 9.31464e-15 0)
(2.9 1.04e-16 0)
(2.9 -1.52574e-14 0)
(2.9 -1.37869e-14 0)
(2.9 1.58222e-14 0)
(2.9 2.69326e-18 0)
(2.9 -9.18733e-16 0)
(2.9 -9.35562e-16 0)
(2.9 2.25649e-16 0)
(2.9 9.65247e-15 0)
(2.9 2.24809e-15 0)
(2.9 -2.88008e-15 0)
(2.9 -6.89042e-15 0)
(2.9 2.3451e-14 0)
(2.9 1.96004e-16 0)
(2.9 -3.13716e-16 0)
(2.9 -1.94949e-15 0)
(2.9 2.20875e-16 0)
(2.9 1.34066e-14 0)
(2.9 -1.25817e-14 0)
(2.9 -8.09206e-15 0)
(2.9 3.03886e-16 0)
(2.9 1.5235e-14 0)
(2.9 -1.63454e-14 0)
(2.9 2.23013e-14 0)
(2.9 -8.74264e-15 0)
(2.9 -2.50003e-14 0)
(2.9 -1.55579e-14 0)
(2.9 -3.89753e-16 0)
(2.9 -5.10315e-17 0)
(2.9 -3.79153e-16 0)
(2.9 1.58007e-14 0)
(2.9 5.68701e-16 0)
(2.9 1.46228e-15 0)
(2.9 1.41505e-14 0)
(2.9 -1.23842e-15 0)
(2.9 7.08888e-16 0)
(2.9 -1.28897e-15 0)
(2.9 7.41201e-15 0)
(2.9 2.08863e-14 0)
(2.9 -1.20199e-15 0)
(2.9 -7.83692e-16 0)
(2.9 -2.27398e-14 0)
(2.9 -1.24827e-15 0)
(2.9 -2.10436e-15 0)
(2.9 -1.65909e-16 0)
(2.9 4.51523e-17 0)
(2.9 3.07843e-16 0)
(2.9 -1.11258e-16 0)
(2.9 -2.39452e-15 0)
(2.9 -1.87505e-15 0)
(2.9 -1.28954e-16 0)
(2.9 2.21396e-16 0)
(2.9 2.43807e-15 0)
(2.9 -6.90676e-15 0)
(2.9 -2.34957e-15 0)
(2.9 -1.71408e-15 0)
(2.9 1.35199e-14 0)
(2.9 6.70502e-16 0)
(2.9 -3.13091e-16 0)
(2.9 1.63815e-14 0)
(2.9 8.36339e-17 0)
(2.9 -8.09487e-15 0)
(2.9 1.35819e-14 0)
(2.9 1.0509e-15 0)
(2.9 1.38823e-14 0)
(2.9 1.26721e-16 0)
(2.9 -1.9073e-15 0)
(2.9 2.12793e-15 0)
(2.9 1.72643e-14 0)
(2.9 8.85289e-15 0)
(2.9 -2.30461e-14 0)
(2.9 -6.90828e-16 0)
(2.9 1.89888e-15 0)
(2.9 -8.76532e-17 0)
(2.9 -2.19206e-15 0)
(2.9 -1.56649e-14 0)
(2.9 -3.49171e-16 0)
(2.9 2.52135e-15 0)
(2.9 7.6324e-15 0)
(2.9 -6.29392e-16 0)
(2.9 2.38693e-15 0)
(2.9 -1.24467e-16 0)
(2.9 -8.68276e-15 0)
(2.9 4.54911e-16 0)
(2.9 -1.48084e-14 0)
(2.9 -2.74332e-15 0)
(2.9 1.40882e-14 0)
(2.9 1.61904e-14 0)
(2.9 4.86099e-16 0)
(2.9 5.74431e-17 0)
(2.9 2.09793e-15 0)
(2.9 3.25686e-16 0)
(2.9 7.1109e-15 0)
(2.9 2.91211e-15 0)
(2.9 1.54102e-16 0)
(2.9 6.62073e-15 0)
(2.9 -1.26486e-14 0)
(2.9 -7.15489e-15 0)
(2.9 -5.62314e-15 0)
(2.9 -1.39608e-14 0)
(2.9 -5.24797e-16 0)
(2.9 4.67022e-15 0)
(2.9 -1.65216e-14 0)
(2.9 -1.61114e-14 0)
(2.9 -1.03014e-15 0)
(2.9 -1.32845e-14 0)
(2.9 9.39878e-15 0)
(2.9 -1.3679e-16 0)
(2.9 -1.62025e-14 0)
(2.9 7.29888e-15 0)
(2.9 1.42822e-16 0)
(2.9 -1.87003e-15 0)
(2.9 7.38778e-16 0)
(2.9 8.44582e-15 0)
(2.9 -1.56021e-14 0)
(2.9 -1.58702e-14 0)
(2.9 -4.58565e-17 0)
(2.9 1.1417e-15 0)
(2.9 -9.1709e-17 0)
(2.9 -6.0215e-16 0)
(2.9 -1.43266e-15 0)
(2.9 8.43714e-15 0)
(2.9 1.40993e-15 0)
(2.9 -1.37235e-14 0)
(2.9 -1.22898e-14 0)
(2.9 -7.66973e-16 0)
(2.9 -1.52475e-14 0)
(2.9 1.36077e-14 0)
(2.9 3.69085e-15 0)
(2.9 8.84784e-15 0)
(2.9 5.71821e-15 0)
(2.9 7.89785e-16 0)
(2.9 -7.50658e-15 0)
(2.9 -8.47617e-16 0)
(2.9 -1.38942e-14 0)
(2.9 -3.91117e-16 0)
(2.9 8.59924e-17 0)
(2.9 5.62721e-15 0)
(2.9 1.16951e-14 0)
(2.9 6.13313e-16 0)
(2.9 1.93902e-14 0)
(2.9 -1.48081e-14 0)
(2.9 7.82288e-15 0)
(2.9 -1.28687e-14 0)
(2.9 1.3552e-14 0)
(2.9 2.79911e-15 0)
(2.9 2.08412e-15 0)
(2.9 3.97791e-15 0)
(2.9 2.44388e-16 0)
(2.9 2.25256e-16 0)
(2.9 1.32858e-15 0)
(2.9 -9.34557e-17 0)
(2.9 -6.63357e-15 0)
(2.9 7.95988e-15 0)
(2.9 5.9267e-17 0)
(2.9 -6.22614e-15 0)
(2.9 2.33497e-14 0)
(2.9 1.09914e-15 0)
(2.9 7.27549e-16 0)
(2.9 1.37839e-14 0)
(2.9 -1.40816e-15 0)
(2.9 2.36317e-15 0)
(2.9 -5.78686e-15 0)
(2.9 -2.16892e-16 0)
(2.9 -1.28466e-15 0)
(2.9 1.46047e-14 0)
(2.9 1.71971e-14 0)
(2.9 6.01675e-16 0)
(2.9 -6.6346e-15 0)
(2.9 2.73652e-15 0)
(2.9 -7.30046e-17 0)
(2.9 -1.56547e-14 0)
(2.9 2.01674e-15 0)
(2.9 1.68733e-14 0)
(2.9 1.81144e-15 0)
(2.9 1.00777e-15 0)
(2.9 -1.04698e-14 0)
(2.9 8.63922e-15 0)
(2.9 -4.78662e-16 0)
(2.9 -2.08724e-14 0)
(2.9 -1.3756e-14 0)
(2.9 1.4473e-14 0)
(2.9 -6.97955e-16 0)
(2.9 1.44339e-14 0)
(2.9 1.44855e-14 0)
(2.9 1.46906e-16 0)
(2.9 -6.07263e-16 0)
(2.9 -1.33718e-14 0)
(2.9 7.60637e-15 0)
(2.9 -1.37543e-15 0)
(2.9 3.77934e-15 0)
(2.9 9.21843e-15 0)
(2.9 -7.28272e-16 0)
(2.9 -1.64478e-15 0)
(2.9 1.41207e-14 0)
(2.9 1.56917e-14 0)
(2.9 -1.11326e-16 0)
(2.9 -2.19167e-14 0)
(2.9 -3.86832e-14 0)
(2.9 -1.90052e-15 0)
(2.9 -2.85243e-14 0)
(2.9 -2.20254e-15 0)
(2.9 1.65917e-14 0)
(2.9 1.45105e-14 0)
(2.9 2.70054e-15 0)
(2.9 2.18486e-14 0)
(2.9 1.31097e-15 0)
(2.9 1.60745e-14 0)
(2.9 5.87117e-16 0)
(2.9 1.29616e-15 0)
(2.9 8.86996e-15 0)
(2.9 2.56028e-16 0)
(2.9 -7.97394e-16 0)
(2.9 9.48684e-16 0)
(2.9 4.24182e-17 0)
(2.9 -3.26139e-16 0)
(2.9 1.67863e-14 0)
(2.9 1.04779e-14 0)
(2.9 8.16399e-15 0)
(2.9 1.54365e-15 0)
(2.9 -1.48419e-14 0)
(2.9 1.63555e-14 0)
(2.9 3.12524e-14 0)
(2.9 1.61339e-14 0)
(2.9 -1.30369e-14 0)
(2.9 3.5808e-15 0)
(2.9 2.44855e-15 0)
(2.9 2.52913e-15 0)
(2.9 2.39354e-14 0)
(2.9 1.67467e-14 0)
(2.9 2.12936e-15 0)
(2.9 -1.34938e-15 0)
(2.9 1.56405e-14 0)
(2.9 3.37582e-15 0)
(2.9 2.62409e-14 0)
(2.9 2.61044e-14 0)
(2.9 3.74439e-14 0)
(2.9 9.57326e-15 0)
(2.9 -1.05476e-15 0)
(2.9 2.11847e-14 0)
(2.9 1.5871e-14 0)
(2.9 -1.18721e-14 0)
(2.9 -1.40772e-14 0)
(2.9 3.16718e-15 0)
(2.9 1.99592e-15 0)
(2.9 -1.23085e-15 0)
(2.9 1.3491e-14 0)
(2.9 5.47315e-16 0)
(2.9 -6.27531e-16 0)
(2.9 -2.28473e-14 0)
(2.9 2.45384e-14 0)
(2.9 1.43804e-14 0)
(2.9 -2.13595e-16 0)
(2.9 -1.57505e-14 0)
(2.9 9.80165e-16 0)
(2.9 2.53172e-16 0)
(2.9 3.2196e-16 0)
(2.9 1.22901e-14 0)
(2.9 -9.34712e-15 0)
(2.9 -2.8703e-16 0)
(2.9 -9.97405e-16 0)
(2.9 -3.8621e-16 0)
(2.9 -4.74063e-16 0)
(2.9 1.70357e-15 0)
(2.9 -7.80527e-18 0)
(2.9 -1.28611e-14 0)
(2.9 -2.29222e-16 0)
(2.9 1.76591e-15 0)
(2.9 3.47783e-16 0)
(2.9 8.01911e-15 0)
(2.9 8.26319e-15 0)
(2.9 2.70632e-16 0)
(2.9 -1.00567e-16 0)
(2.9 1.06008e-16 0)
(2.9 1.39095e-16 0)
(2.9 -4.55799e-16 0)
(2.9 -1.38618e-14 0)
(2.9 1.61592e-14 0)
(2.9 5.10257e-16 0)
(2.9 4.0874e-16 0)
(2.9 1.01297e-15 0)
(2.9 2.18868e-15 0)
(2.9 3.05644e-15 0)
(2.9 2.56403e-15 0)
(2.9 1.53985e-14 0)
(2.9 1.72247e-14 0)
(2.9 1.16479e-15 0)
(2.9 1.39159e-14 0)
(2.9 9.8846e-15 0)
(2.9 2.67568e-15 0)
(2.9 1.39998e-14 0)
(2.9 3.75266e-16 0)
(2.9 5.61643e-17 0)
(2.9 8.78021e-16 0)
(2.9 1.78581e-14 0)
(2.9 9.35771e-15 0)
(2.9 -4.98052e-15 0)
(2.9 -1.42396e-15 0)
(2.9 -1.54723e-14 0)
(2.9 2.5896e-15 0)
(2.9 1.61533e-14 0)
(2.9 1.31783e-14 0)
(2.9 1.28693e-14 0)
(2.9 1.45962e-14 0)
(2.9 1.36539e-15 0)
(2.9 -1.40979e-14 0)
(2.9 -1.42716e-14 0)
(2.9 1.47521e-14 0)
(2.9 -7.43251e-15 0)
(2.9 -3.11307e-15 0)
(2.9 8.61e-15 0)
(2.9 -1.34018e-14 0)
(2.9 -7.29263e-16 0)
(2.9 -2.08985e-15 0)
(2.9 -2.27008e-15 0)
(2.9 -1.40942e-14 0)
(2.9 -3.47821e-16 0)
(2.9 -6.5465e-16 0)
(2.9 2.21397e-14 0)
(2.9 1.98128e-15 0)
(2.9 2.04262e-14 0)
(2.9 -4.22911e-16 0)
(2.9 -2.07617e-14 0)
(2.9 -3.53604e-16 0)
(2.9 -2.77029e-16 0)
(2.9 -1.7178e-15 0)
(2.9 -3.88105e-16 0)
(2.9 -1.73256e-15 0)
(2.9 -1.02771e-16 0)
(2.9 -3.6604e-16 0)
(2.9 -5.97315e-15 0)
(2.9 -1.11179e-16 0)
(2.9 5.49769e-18 0)
(2.9 6.93799e-17 0)
(2.9 1.06238e-15 0)
(2.9 -2.18699e-16 0)
(2.9 -8.61515e-15 0)
(2.9 -3.98682e-16 0)
(2.9 -7.93952e-15 0)
(2.9 1.43709e-15 0)
(2.9 2.25869e-14 0)
(2.9 7.15119e-16 0)
(2.9 -7.36249e-15 0)
(2.9 3.43793e-16 0)
(2.9 8.90125e-15 0)
(2.9 8.1833e-15 0)
(2.9 -2.43808e-16 0)
(2.9 -1.67337e-14 0)
(2.9 -9.66496e-15 0)
(2.9 -4.4184e-16 0)
(2.9 -1.37405e-14 0)
(2.9 1.08016e-15 0)
(2.9 -1.54763e-14 0)
(2.9 -4.41173e-16 0)
(2.9 -7.96974e-15 0)
(2.9 -1.51904e-14 0)
(2.9 -1.73939e-14 0)
(2.9 -1.64749e-14 0)
(2.9 -4.96123e-16 0)
(2.9 -1.34507e-17 0)
(2.9 -1.28894e-14 0)
(2.9 -1.2557e-14 0)
(2.9 -1.24552e-14 0)
(2.9 -1.25395e-14 0)
(2.9 9.00254e-15 0)
(2.9 1.42842e-14 0)
(2.9 -5.07405e-15 0)
(2.9 -7.33957e-17 0)
(2.9 -1.50862e-16 0)
(2.9 -2.87693e-15 0)
(2.9 -1.81156e-14 0)
(2.9 -1.81415e-15 0)
(2.9 -2.11384e-15 0)
(2.9 -8.83993e-16 0)
(2.9 -1.57425e-14 0)
(2.9 1.0499e-14 0)
(2.9 3.65281e-16 0)
(2.9 -2.29571e-14 0)
(2.9 2.26352e-15 0)
(2.9 6.52403e-15 0)
(2.9 -2.04453e-14 0)
(2.9 -2.95447e-15 0)
(2.9 1.88801e-14 0)
(2.9 3.59234e-16 0)
(2.9 -1.80537e-15 0)
(2.9 -1.04756e-15 0)
(2.9 -2.22043e-15 0)
(2.9 -1.57545e-14 0)
(2.9 -6.93853e-16 0)
(2.9 -9.4008e-15 0)
(2.9 5.64531e-15 0)
(2.9 2.37667e-16 0)
(2.9 -1.29929e-17 0)
(2.9 1.4818e-16 0)
(2.9 8.63533e-15 0)
(2.9 4.53542e-16 0)
(2.9 6.36086e-15 0)
(2.9 -1.56661e-14 0)
(2.9 -2.92797e-15 0)
(2.9 7.7744e-15 0)
(2.9 -4.6957e-15 0)
(2.9 -7.85222e-17 0)
(2.9 -9.20206e-16 0)
(2.9 -2.01904e-16 0)
(2.9 -7.12429e-15 0)
(2.9 -1.49103e-14 0)
(2.9 -1.09053e-15 0)
(2.9 -2.31068e-14 0)
(2.9 -2.22536e-14 0)
(2.9 -6.42688e-16 0)
(2.9 -1.15071e-15 0)
(2.9 1.53488e-14 0)
(2.9 -1.63046e-15 0)
(2.9 1.09287e-15 0)
(2.9 -1.65591e-14 0)
(2.9 -2.38072e-15 0)
(2.9 -4.40153e-15 0)
(2.9 -3.7752e-15 0)
(2.9 1.52737e-14 0)
(2.9 4.33619e-16 0)
(2.9 6.73535e-15 0)
(2.9 1.55824e-14 0)
(2.9 1.65011e-14 0)
(2.9 8.84062e-15 0)
(2.9 9.35324e-15 0)
(2.9 4.72063e-15 0)
(2.9 3.20412e-14 0)
(2.9 -1.40152e-14 0)
(2.9 6.77371e-15 0)
(2.9 -1.62339e-14 0)
(2.9 -2.64786e-14 0)
(2.9 -1.28582e-15 0)
(2.9 -1.58872e-14 0)
(2.9 -7.22956e-16 0)
(2.9 -3.51081e-15 0)
(2.9 -2.16786e-14 0)
(2.9 6.30298e-15 0)
(2.9 2.26389e-16 0)
(2.9 1.30073e-16 0)
(2.9 -6.93292e-15 0)
(2.9 -5.41416e-16 0)
(2.9 -2.35299e-14 0)
(2.9 -1.22322e-14 0)
(2.9 -6.39997e-16 0)
(2.9 -1.4171e-14 0)
(2.9 -5.74287e-15 0)
(2.9 -1.38758e-14 0)
(2.9 -1.19045e-15 0)
(2.9 3.64697e-16 0)
(2.9 -1.50585e-14 0)
(2.9 -8.36977e-15 0)
(2.9 7.1468e-16 0)
(2.9 -1.80822e-17 0)
(2.9 -1.00554e-15 0)
(2.9 6.86763e-15 0)
(2.9 2.42388e-16 0)
(2.9 1.48481e-15 0)
(2.9 -3.22535e-15 0)
(2.9 -1.4277e-14 0)
(2.9 1.42694e-15 0)
(2.9 9.75491e-19 0)
(2.9 1.23997e-17 0)
(2.9 -1.04026e-16 0)
(2.9 -7.54236e-17 0)
(2.9 -9.87613e-16 0)
(2.9 -2.81233e-15 0)
(2.9 3.97708e-16 0)
(2.9 2.11369e-14 0)
(2.9 2.12328e-14 0)
(2.9 6.22679e-16 0)
(2.9 7.50117e-16 0)
(2.9 -2.08565e-16 0)
(2.9 -1.62186e-15 0)
(2.9 1.36586e-14 0)
(2.9 -1.83536e-15 0)
(2.9 7.95118e-16 0)
(2.9 -1.71847e-14 0)
(2.9 -1.71238e-14 0)
(2.9 1.04622e-15 0)
(2.9 -1.79054e-15 0)
(2.9 1.44832e-15 0)
(2.9 9.23349e-15 0)
(2.9 1.63776e-14 0)
(2.9 1.60309e-14 0)
(2.9 1.73552e-15 0)
(2.9 1.45411e-14 0)
(2.9 1.88012e-14 0)
(2.9 1.41448e-15 0)
(2.9 5.3264e-17 0)
(2.9 1.06751e-16 0)
(2.9 -2.21698e-16 0)
(2.9 -5.23271e-15 0)
(2.9 -2.0317e-15 0)
(2.9 -3.48559e-16 0)
(2.9 -7.99488e-15 0)
(2.9 -4.19703e-16 0)
(2.9 -6.2381e-15 0)
(2.9 2.31615e-14 0)
(2.9 4.43268e-16 0)
(2.9 -3.98078e-16 0)
(2.9 2.3365e-14 0)
(2.9 1.48106e-15 0)
(2.9 1.21631e-14 0)
(2.9 5.66648e-16 0)
(2.9 1.26162e-14 0)
(2.9 2.34491e-14 0)
(2.9 1.5672e-14 0)
(2.9 9.23191e-15 0)
(2.9 7.56472e-15 0)
(2.9 1.34225e-14 0)
(2.9 -8.17676e-15 0)
(2.9 7.6171e-15 0)
(2.9 -8.09482e-17 0)
(2.9 -9.92732e-15 0)
(2.9 -1.505e-14 0)
(2.9 -2.49201e-16 0)
(2.9 6.6355e-15 0)
(2.9 -7.72657e-15 0)
(2.9 1.18035e-14 0)
(2.9 7.2989e-15 0)
(2.9 4.23555e-15 0)
(2.9 1.17593e-16 0)
(2.9 1.79854e-18 0)
(2.9 -6.70631e-18 0)
(2.9 -1.78125e-16 0)
(2.9 -8.13238e-15 0)
(2.9 -1.93007e-17 0)
(2.9 2.81538e-15 0)
(2.9 2.87776e-15 0)
(2.9 5.06373e-16 0)
(2.9 7.36631e-15 0)
(2.9 -1.66862e-14 0)
(2.9 -1.48001e-14 0)
(2.9 -1.4065e-14 0)
(2.9 -1.95117e-15 0)
(2.9 1.34743e-14 0)
(2.9 -7.06624e-15 0)
(2.9 -7.25589e-15 0)
(2.9 -2.1355e-15 0)
(2.9 -1.56391e-14 0)
(2.9 3.42353e-15 0)
(2.9 -7.05705e-15 0)
(2.9 -1.39432e-14 0)
(2.9 -7.30882e-15 0)
(2.9 -2.3471e-15 0)
(2.9 -1.58413e-14 0)
(2.9 -7.32119e-15 0)
(2.9 2.10657e-14 0)
(2.9 -6.66056e-15 0)
(2.9 1.70655e-14 0)
(2.9 2.45626e-14 0)
(2.9 2.02151e-14 0)
(2.9 5.75081e-16 0)
(2.9 2.98054e-16 0)
(2.9 8.13454e-16 0)
(2.9 2.16638e-14 0)
(2.9 -8.11411e-17 0)
(2.9 2.7463e-15 0)
(2.9 -1.90864e-15 0)
(2.9 -2.08975e-15 0)
(2.9 3.46847e-15 0)
(2.9 2.71037e-14 0)
(2.9 -1.39938e-14 0)
(2.9 -7.55101e-16 0)
(2.9 -1.37025e-14 0)
(2.9 2.74755e-15 0)
(2.9 9.09082e-15 0)
(2.9 8.76251e-15 0)
(2.9 -6.63049e-15 0)
(2.9 -2.2946e-16 0)
(2.9 -1.01494e-15 0)
(2.9 9.07166e-16 0)
(2.9 -1.79237e-16 0)
(2.9 -1.39589e-14 0)
(2.9 -2.19378e-15 0)
(2.9 -3.86762e-16 0)
(2.9 -7.93054e-15 0)
(2.9 -1.5953e-15 0)
(2.9 -1.43639e-14 0)
(2.9 -8.1834e-15 0)
(2.9 -2.98022e-14 0)
(2.9 1.16954e-16 0)
(2.9 3.88023e-17 0)
(2.9 7.36361e-17 0)
(2.9 1.36233e-15 0)
(2.9 -1.11433e-15 0)
(2.9 8.50842e-16 0)
(2.9 1.31123e-15 0)
(2.9 1.41156e-15 0)
(2.9 1.09516e-15 0)
(2.9 5.83159e-16 0)
(2.9 -9.30664e-15 0)
(2.9 1.32514e-14 0)
(2.9 9.22643e-16 0)
(2.9 -1.41601e-14 0)
(2.9 -1.39038e-14 0)
(2.9 2.06756e-14 0)
(2.9 2.26445e-14 0)
(2.9 -1.30668e-14 0)
(2.9 -1.23884e-15 0)
(2.9 -3.04718e-14 0)
(2.9 -1.8433e-15 0)
(2.9 -1.76764e-15 0)
(2.9 -9.29003e-15 0)
(2.9 -1.56008e-14 0)
(2.9 -1.65206e-14 0)
(2.9 -1.72963e-14 0)
(2.9 -1.36339e-14 0)
(2.9 -9.52639e-16 0)
(2.9 9.97157e-15 0)
(2.9 3.43664e-15 0)
(2.9 -1.27033e-14 0)
(2.9 1.73359e-15 0)
(2.9 2.45271e-15 0)
(2.9 9.67308e-15 0)
(2.9 -1.06157e-14 0)
(2.9 -2.79346e-16 0)
(2.9 -1.93284e-16 0)
(2.9 -1.63227e-14 0)
(2.9 -1.69486e-14 0)
(2.9 -9.24002e-16 0)
(2.9 -2.78902e-14 0)
(2.9 -7.43764e-15 0)
(2.9 -1.99142e-16 0)
(2.9 1.82064e-16 0)
(2.9 1.51683e-16 0)
(2.9 -6.71913e-15 0)
(2.9 -1.02257e-15 0)
(2.9 -1.04965e-15 0)
(2.9 -1.3575e-14 0)
(2.9 -2.48919e-16 0)
(2.9 8.86141e-17 0)
(2.9 1.71796e-15 0)
(2.9 2.16922e-14 0)
(2.9 5.66088e-16 0)
(2.9 -4.76599e-16 0)
(2.9 -8.4332e-15 0)
(2.9 -2.51439e-16 0)
(2.9 -1.58227e-15 0)
(2.9 -1.00825e-15 0)
(2.9 4.51161e-15 0)
(2.9 7.83902e-15 0)
(2.9 2.37298e-16 0)
(2.9 2.48813e-16 0)
(2.9 1.16931e-14 0)
(2.9 -1.46079e-15 0)
(2.9 6.803e-15 0)
(2.9 7.38486e-15 0)
(2.9 8.2354e-15 0)
(2.9 7.99278e-15 0)
(2.9 -5.81802e-16 0)
(2.9 -9.65335e-17 0)
(2.9 -2.85123e-16 0)
(2.9 2.17937e-14 0)
(2.9 1.44615e-14 0)
(2.9 -3.42062e-15 0)