/*--------------------------------*- C++ -*----------------------------------*\
| =========                 |                                                 |
| \\      /  F ield         | OpenFOAM: The Open Source CFD Toolbox           |
|  \\    /   O peration     | Version:  2412                                  |
|   \\  /    A nd           | Website:  www.openfoam.com                      |
|    \\/     M anipulation  |                                                 |
\*---------------------------------------------------------------------------*/
FoamFile
{
    version     2.0;
    format      ascii;
    arch        "LSB;label=32;scalar=64";
    class       volScalarField;
    location    "0.044086";
    object      rho;
}
// * * * * * * * * * * * * * * * * * * * * * * * * * * * * * * * * * * * * * //

dimensions      [1 -3 0 0 0 0 0];

internalField   nonuniform List<scalar> 
100
(
0.220132
0.220215
0.220335
0.22052
0.2206
0.220318
0.221035
0.256971
0.472551
0.540275
0.526938
0.510585
0.515034
0.539537
0.560845
0.565823
0.570736
0.574597
0.566243
0.539844
0.53247
0.536194
0.540798
0.552839
0.578158
0.590825
0.595925
0.599958
0.597111
0.589656
0.590546
0.595424
0.6053
0.616928
0.623344
0.626055
0.617707
0.613915
0.618241
0.626616
0.643063
0.652544
0.657574
0.652935
0.643718
0.644754
0.651184
0.670319
0.695949
0.706587
0.711994
0.704668
0.682616
0.673787
0.678034
0.684753
0.700548
0.720002
0.731198
0.738554
0.74371
0.743748
0.745424
0.750298
0.755052
0.755854
0.755831
0.76187
0.768706
0.779093
0.787525
0.79101
0.787378
0.78439
0.79177
0.806173
0.843215
0.869921
0.880529
0.887155
0.875236
0.843059
0.814559
0.802579
0.79279
0.783411
0.769001
0.747537
0.722393
0.699981
0.686203
0.679611
0.675669
0.673007
0.671557
0.66996
0.670749
0.673331
0.677511
0.679197
)
;

boundaryField
{
    sides
    {
        type            calculated;
        value           nonuniform List<scalar> 2(0.679197 0.220132);
    }
    empty
    {
        type            empty;
    }
}


// ************************************************************************* //
