/*--------------------------------*- C++ -*----------------------------------*\
| =========                 |                                                 |
| \\      /  F ield         | OpenFOAM: The Open Source CFD Toolbox           |
|  \\    /   O peration     | Version:  2412                                  |
|   \\  /    A nd           | Website:  www.openfoam.com                      |
|    \\/     M anipulation  |                                                 |
\*---------------------------------------------------------------------------*/
FoamFile
{
    version     2.0;
    format      ascii;
    arch        "LSB;label=32;scalar=64";
    class       volScalarField;
    location    "0.0383368";
    object      rhoY_Y_N2;
}
// * * * * * * * * * * * * * * * * * * * * * * * * * * * * * * * * * * * * * //

dimensions      [1 -3 0 0 0 0 0];

internalField   nonuniform List<scalar> 
100
(
0.265085
0.265098
0.265187
0.26532
0.265374
0.265439
0.265305
0.265069
0.264875
0.264594
0.264482
0.264323
0.264337
0.264363
0.264396
0.264496
0.264479
0.264541
0.264475
0.264398
0.264241
0.264052
0.263882
0.263757
0.263637
0.263515
0.26341
0.263237
0.262701
0.263777
0.33141
0.599664
0.659226
0.652031
0.652596
0.664027
0.671287
0.665949
0.655868
0.658876
0.665548
0.677737
0.696159
0.710379
0.719316
0.72652
0.723035
0.705315
0.698982
0.96537
0.771427
0.782185
0.78843
0.793939
0.800419
0.805959
0.803688
0.801485
0.807234
0.815042
0.824902
0.83255
0.830202
0.827976
0.83156
0.843742
0.854338
0.863729
0.868937
0.863417
0.865448
0.8678
0.884841
0.908358
0.918433
0.926678
0.918688
0.906024
0.901609
0.911779
0.924391
0.937973
0.948638
0.959544
0.970375
0.985532
0.99592
1.03628
0.812171
0.463618
0.191294
0.0584952
0.0143811
0.00292886
0.000499232
6.65105e-05
6.56484e-06
4.0156e-07
1.11709e-08
-1.56284e-11
)
;

boundaryField
{
    sides
    {
        type            calculated;
        value           nonuniform List<scalar> 2(0 1.12308);
    }
    empty
    {
        type            empty;
    }
}


// ************************************************************************* //
