/*--------------------------------*- C++ -*----------------------------------*\
| =========                 |                                                 |
| \\      /  F ield         | OpenFOAM: The Open Source CFD Toolbox           |
|  \\    /   O peration     | Version:  2412                                  |
|   \\  /    A nd           | Website:  www.openfoam.com                      |
|    \\/     M anipulation  |                                                 |
\*---------------------------------------------------------------------------*/
FoamFile
{
    version     2.0;
    format      ascii;
    arch        "LSB;label=32;scalar=64";
    class       volScalarField;
    location    "0.0153474";
    object      rho;
}
// * * * * * * * * * * * * * * * * * * * * * * * * * * * * * * * * * * * * * //

dimensions      [1 -3 0 0 0 0 0];

internalField   nonuniform List<scalar> 
100
(
1.1035
1.07452
1.04021
1.01293
0.992332
0.975065
0.959112
0.943619
0.928316
0.913156
0.898155
0.883331
0.868696
0.854254
0.84
0.825932
0.812042
0.798338
0.784794
0.77147
0.758278
0.745388
0.732619
0.720159
0.708033
0.695648
0.684374
0.671802
0.660999
0.649336
0.63803
0.627557
0.616442
0.606102
0.594985
0.585315
0.574752
0.564628
0.554096
0.544706
0.535278
0.525569
0.515626
0.506722
0.498299
0.489255
0.48151
0.475515
0.467946
0.459499
0.455655
0.458177
0.466985
0.469669
0.456208
0.443984
0.453416
0.484329
0.486072
0.446062
0.425292
0.45034
0.502386
0.499259
0.440852
0.41537
0.443045
0.505063
0.507696
0.451993
0.415991
0.429135
0.487822
0.509702
0.480729
0.426001
0.416641
0.450133
0.509463
0.519344
0.483258
0.419754
0.397229
0.410237
0.461076
0.521803
0.540044
0.680594
0.994626
0.944874
0.874712
0.835702
0.821041
0.819719
0.815998
0.81356
0.811899
0.810893
0.819383
0.820465
)
;

boundaryField
{
    sides
    {
        type            calculated;
        value           nonuniform List<scalar> 2(0.820465 1.1035);
    }
    empty
    {
        type            empty;
    }
}


// ************************************************************************* //
