/*--------------------------------*- C++ -*----------------------------------*\
| =========                 |                                                 |
| \\      /  F ield         | OpenFOAM: The Open Source CFD Toolbox           |
|  \\    /   O peration     | Version:  2412                                  |
|   \\  /    A nd           | Website:  www.openfoam.com                      |
|    \\/     M anipulation  |                                                 |
\*---------------------------------------------------------------------------*/
FoamFile
{
    version     2.0;
    format      ascii;
    arch        "LSB;label=32;scalar=64";
    class       volVectorField;
    location    "0.000706866";
    object      U;
}
// * * * * * * * * * * * * * * * * * * * * * * * * * * * * * * * * * * * * * //

dimensions      [0 1 -1 0 0 0 0];

internalField   nonuniform List<vector> 
100
(
(2.47577e-14 0 0)
(1.04061e-13 0 0)
(1.23833e-14 0 0)
(-1.01243e-13 0 0)
(-3.99594e-14 0 0)
(2.4751e-14 0 0)
(9.60333e-14 0 0)
(-2.73017e-14 0 0)
(-5.27527e-14 0 0)
(-6.2059e-15 0 0)
(-2.02101e-20 0 0)
(-3.4524e-14 0 0)
(-2.51481e-20 0 0)
(-6.56453e-22 0 0)
(1.35694e-20 0 0)
(1.0564e-14 0 0)
(-1.0564e-14 0 0)
(-1.18114e-20 0 0)
(2.40465e-20 0 0)
(3.4524e-14 0 0)
(1.88456e-28 0 0)
(-3.4524e-14 0 0)
(-1.86158e-20 0 0)
(8.13477e-15 0 0)
(1.19998e-14 0 0)
(-1.19998e-14 0 0)
(-8.13477e-15 0 0)
(2.43123e-21 0 0)
(1.58253e-14 0 0)
(6.94738e-14 0 0)
(4.46439e-14 0 0)
(4.83129e-14 0 0)
(-7.48902e-16 0 0)
(-7.14994e-14 0 0)
(-4.44139e-15 0 0)
(5.81769e-14 0 0)
(1.85128e-14 0 0)
(-8.96092e-15 0 0)
(-9.53072e-14 0 0)
(-7.39877e-14 0 0)
(9.81001e-21 0 0)
(3.48926e-14 0 0)
(5.2497e-11 0 0)
(4.02831e-07 0 0)
(0.000464851 0 0)
(0.117461 0 0)
(4.77762 0 0)
(38.1557 0 0)
(96.1762 0 0)
(189.027 0 0)
(263.772 0 0)
(290.04 0 0)
(272.14 0 0)
(120.168 0 0)
(3.80969 0 0)
(0.00670831 0 0)
(1.79144e-06 0 0)
(1.34839e-10 0 0)
(4.28255e-14 0 0)
(-2.11277e-14 0 0)
(-3.66322e-14 0 0)
(5.13967e-14 0 0)
(7.31912e-15 0 0)
(-2.10795e-14 0 0)
(-4.67457e-15 0 0)
(-1.12258e-14 0 0)
(4.36455e-14 0 0)
(-6.66558e-15 0 0)
(-1.40457e-14 0 0)
(-1.4049e-14 0 0)
(-3.61092e-14 0 0)
(-7.97544e-15 0 0)
(-1.13252e-15 0 0)
(1.45955e-14 0 0)
(-1.98164e-14 0 0)
(7.16447e-15 0 0)
(5.62087e-14 0 0)
(6.10649e-20 0 0)
(-4.86163e-14 0 0)
(-1.47567e-14 0 0)
(7.16443e-15 0 0)
(5.84516e-14 0 0)
(-2.24286e-15 0 0)
(-4.86164e-14 0 0)
(-1.47567e-14 0 0)
(7.16441e-15 0 0)
(4.43571e-14 0 0)
(-9.03059e-15 0 0)
(-3.46644e-14 0 0)
(-1.62541e-14 0 0)
(6.35933e-15 0 0)
(5.64683e-16 0 0)
(-1.3396e-14 0 0)
(7.1643e-15 0 0)
(5.6671e-15 0 0)
(1.45285e-14 0 0)
(-3.50862e-14 0 0)
(7.72621e-15 0 0)
(7.16432e-15 0 0)
(-1.26292e-15 0 0)
)
;

boundaryField
{
    sides
    {
        type            fixedValue;
        value           uniform (0 0 0);
    }
    empty
    {
        type            empty;
    }
}


// ************************************************************************* //
