/*--------------------------------*- C++ -*----------------------------------*\
| =========                 |                                                 |
| \\      /  F ield         | OpenFOAM: The Open Source CFD Toolbox           |
|  \\    /   O peration     | Version:  2412                                  |
|   \\  /    A nd           | Website:  www.openfoam.com                      |
|    \\/     M anipulation  |                                                 |
\*---------------------------------------------------------------------------*/
FoamFile
{
    version     2.0;
    format      ascii;
    arch        "LSB;label=32;scalar=64";
    class       volVectorField;
    location    "0.0272757";
    object      U;
}
// * * * * * * * * * * * * * * * * * * * * * * * * * * * * * * * * * * * * * //

dimensions      [0 1 -1 0 0 0 0];

internalField   nonuniform List<vector> 
100
(
(2.55755 0 0)
(7.74301 0 0)
(12.8897 0 0)
(18.0616 0 0)
(23.221 0 0)
(28.4337 0 0)
(33.5665 0 0)
(38.836 0 0)
(43.8669 0 0)
(49.2685 0 0)
(54.1622 0 0)
(59.6817 0 0)
(64.4979 0 0)
(69.9672 0 0)
(74.945 0 0)
(80.2428 0 0)
(85.4851 0 0)
(90.5221 0 0)
(95.9203 0 0)
(100.825 0 0)
(106.302 0 0)
(111.236 0 0)
(116.692 0 0)
(121.684 0 0)
(127.074 0 0)
(132.159 0 0)
(137.483 0 0)
(142.629 0 0)
(147.922 0 0)
(153.113 0 0)
(158.37 0 0)
(163.545 0 0)
(168.734 0 0)
(173.885 0 0)
(179.056 0 0)
(184.263 0 0)
(189.556 0 0)
(194.911 0 0)
(200.225 0 0)
(205.514 0 0)
(210.717 0 0)
(215.615 0 0)
(220.301 0 0)
(225.058 0 0)
(229.572 0 0)
(233.245 0 0)
(236.88 0 0)
(241.357 0 0)
(247.342 0 0)
(253.109 0 0)
(253.636 0 0)
(253.767 0 0)
(253.645 0 0)
(253.85 0 0)
(261.089 0 0)
(281.594 0 0)
(289.11 0 0)
(288.782 0 0)
(289.72 0 0)
(291.705 0 0)
(289.049 0 0)
(287.458 0 0)
(281.495 0 0)
(127.588 0 0)
(9.60552 0 0)
(4.70493 0 0)
(6.38153 0 0)
(-0.56942 0 0)
(-2.4377 0 0)
(-13.3123 0 0)
(-5.73846 0 0)
(-6.25882 0 0)
(-1.10845 0 0)
(5.48598 0 0)
(1.68292 0 0)
(9.06351 0 0)
(4.76067 0 0)
(5.25498 0 0)
(0.543744 0 0)
(-7.96055 0 0)
(-5.66124 0 0)
(-3.18449 0 0)
(2.93773 0 0)
(8.37173 0 0)
(6.68319 0 0)
(0.726382 0 0)
(-4.17587 0 0)
(-6.55206 0 0)
(-5.69612 0 0)
(-0.359911 0 0)
(3.40895 0 0)
(6.56232 0 0)
(4.21247 0 0)
(-1.2908 0 0)
(-4.29208 0 0)
(-4.91944 0 0)
(-1.70796 0 0)
(1.42822 0 0)
(3.08484 0 0)
(0.739729 0 0)
)
;

boundaryField
{
    sides
    {
        type            fixedValue;
        value           uniform (0 0 0);
    }
    empty
    {
        type            empty;
    }
}


// ************************************************************************* //
