/*--------------------------------*- C++ -*----------------------------------*\
| =========                 |                                                 |
| \\      /  F ield         | OpenFOAM: The Open Source CFD Toolbox           |
|  \\    /   O peration     | Version:  2412                                  |
|   \\  /    A nd           | Website:  www.openfoam.com                      |
|    \\/     M anipulation  |                                                 |
\*---------------------------------------------------------------------------*/
FoamFile
{
    version     2.0;
    format      ascii;
    arch        "LSB;label=32;scalar=64";
    class       volVectorField;
    location    "2.60733e-05";
    object      U;
}
// * * * * * * * * * * * * * * * * * * * * * * * * * * * * * * * * * * * * * //

dimensions      [0 1 -1 0 0 0 0];

internalField   nonuniform List<vector> 
1800
(
(2.9 -1.88513e-14 0)
(2.9 3.77175e-14 0)
(2.9 3.59781e-14 0)
(2.9 -1.07575e-14 0)
(2.9 -7.22903e-16 0)
(2.9 -3.72195e-14 0)
(2.9 -3.39653e-14 0)
(2.9 -1.50457e-14 0)
(2.9 -1.21384e-14 0)
(2.9 -2.23829e-15 0)
(2.9 -3.5911e-15 0)
(2.9 -2.38401e-14 0)
(2.9 -3.18168e-14 0)
(2.9 -1.64527e-14 0)
(2.9 -4.91393e-14 0)
(2.9 -9.42697e-15 0)
(2.9 7.51724e-15 0)
(2.9 1.22171e-14 0)
(2.9 -3.48154e-14 0)
(2.9 -4.46787e-15 0)
(2.9 -2.28323e-14 0)
(2.9 8.83661e-15 0)
(2.9 -3.71997e-15 0)
(2.9 -2.63451e-15 0)
(2.9 -3.97444e-15 0)
(2.9 -2.28637e-14 0)
(2.9 -1.37441e-14 0)
(2.9 -7.85219e-15 0)
(2.9 2.03809e-14 0)
(2.9 3.01602e-14 0)
(2.9 1.02237e-14 0)
(2.9 1.39634e-14 0)
(2.9 -1.43858e-14 0)
(2.9 -3.95503e-14 0)
(2.9 1.29668e-14 0)
(2.9 -7.1627e-16 0)
(2.9 1.40317e-14 0)
(2.9 2.82879e-14 0)
(2.9 -1.54532e-16 0)
(2.9 -2.67905e-15 0)
(2.9 6.00734e-15 0)
(2.9 1.61877e-14 0)
(2.9 -5.00638e-15 0)
(2.9 8.22505e-15 0)
(2.9 -1.82609e-14 0)
(2.9 1.83664e-15 0)
(2.9 2.17471e-14 0)
(2.9 2.86333e-14 0)
(2.9 6.64831e-16 0)
(2.9 2.68821e-14 0)
(2.9 -4.63264e-15 0)
(2.9 2.0612e-15 0)
(2.9 1.478e-14 0)
(2.9 -1.60251e-14 0)
(2.9 3.93022e-15 0)
(2.9 -7.11782e-15 0)
(2.9 -1.91858e-14 0)
(2.9 1.35236e-14 0)
(2.9 -2.7648e-14 0)
(2.9 -1.51653e-14 0)
(2.9 -3.00563e-14 0)
(2.9 4.98108e-15 0)
(2.9 1.60848e-14 0)
(2.9 -3.51502e-14 0)
(2.9 -3.17216e-14 0)
(2.9 -8.56868e-14 0)
(2.9 -8.90969e-14 0)
(2.9 -4.52005e-14 0)
(2.9 -2.82813e-14 0)
(2.9 -2.13503e-14 0)
(2.9 -5.87941e-15 0)
(2.9 -2.24523e-14 0)
(2.9 -7.35924e-15 0)
(2.9 -2.52191e-15 0)
(2.9 -2.68665e-14 0)
(2.9 8.26922e-15 0)
(2.9 1.09673e-14 0)
(2.9 -1.70167e-15 0)
(2.9 -3.93119e-14 0)
(2.9 -2.03968e-14 0)
(2.9 -3.3664e-14 0)
(2.9 -1.48804e-14 0)
(2.9 -9.68996e-15 0)
(2.9 -1.27237e-14 0)
(2.9 -2.56604e-14 0)
(2.9 -2.83238e-14 0)
(2.9 -3.51915e-14 0)
(2.9 -3.8824e-14 0)
(2.9 6.01274e-14 0)
(2.9 5.08569e-14 0)
(2.9 5.31971e-15 0)
(2.9 1.7635e-14 0)
(2.9 -4.24856e-14 0)
(2.9 -5.67648e-14 0)
(2.9 2.46449e-14 0)
(2.9 -1.4939e-14 0)
(2.9 2.27883e-14 0)
(2.9 6.31213e-14 0)
(2.9 7.43157e-15 0)
(2.9 -1.97092e-14 0)
(2.9 1.39446e-14 0)
(2.9 2.71258e-14 0)
(2.9 -2.57236e-14 0)
(2.9 -2.74315e-14 0)
(2.9 -4.96456e-15 0)
(2.9 1.46396e-14 0)
(2.9 4.25511e-14 0)
(2.9 2.56495e-14 0)
(2.9 2.44536e-14 0)
(2.9 6.56022e-14 0)
(2.9 1.18806e-14 0)
(2.9 -7.5186e-15 0)
(2.9 4.38447e-14 0)
(2.9 -3.38146e-14 0)
(2.9 -9.22023e-15 0)
(2.9 2.03885e-14 0)
(2.9 -2.66326e-14 0)
(2.9 -1.73511e-15 0)
(2.9 -3.54253e-14 0)
(2.9 -1.13117e-14 0)
(2.9 -1.50589e-14 0)
(2.9 1.2288e-14 0)
(2.9 -4.25557e-15 0)
(2.9 1.64367e-14 0)
(2.9 -8.36515e-15 0)
(2.9 -6.46866e-14 0)
(2.9 -3.6147e-14 0)
(2.9 -3.36988e-14 0)
(2.9 1.02157e-14 0)
(2.9 -3.11808e-14 0)
(2.9 9.52032e-15 0)
(2.9 3.72604e-15 0)
(2.9 -3.05614e-14 0)
(2.9 -1.00627e-14 0)
(2.9 2.5953e-15 0)
(2.9 2.5777e-14 0)
(2.9 1.51053e-14 0)
(2.9 2.30263e-15 0)
(2.9 -1.43442e-14 0)
(2.9 -2.89551e-14 0)
(2.9 9.09763e-15 0)
(2.9 -4.12451e-16 0)
(2.9 3.98711e-14 0)
(2.9 6.41428e-15 0)
(2.9 -1.83315e-14 0)
(2.9 -2.33587e-14 0)
(2.9 -3.37669e-14 0)
(2.9 -9.83125e-15 0)
(2.9 -6.53773e-16 0)
(2.9 -2.05902e-14 0)
(2.9 1.95054e-14 0)
(2.9 1.49492e-14 0)
(2.9 -3.96003e-14 0)
(2.9 -2.16299e-14 0)
(2.9 -2.35963e-14 0)
(2.9 -2.04244e-14 0)
(2.9 1.54236e-14 0)
(2.9 2.14897e-14 0)
(2.9 -1.03499e-14 0)
(2.9 -1.23315e-14 0)
(2.9 -2.84739e-14 0)
(2.9 -2.09838e-14 0)
(2.9 -2.2572e-14 0)
(2.9 1.39137e-15 0)
(2.9 2.21036e-14 0)
(2.9 -3.27173e-15 0)
(2.9 1.68567e-14 0)
(2.9 -8.56073e-16 0)
(2.9 1.11483e-14 0)
(2.9 -6.06755e-15 0)
(2.9 -1.40519e-14 0)
(2.9 -4.5116e-15 0)
(2.9 -8.23665e-15 0)
(2.9 9.42703e-15 0)
(2.9 -3.76148e-16 0)
(2.9 -1.22185e-14 0)
(2.9 8.18194e-15 0)
(2.9 3.68373e-14 0)
(2.9 3.28981e-14 0)
(2.9 -2.10366e-14 0)
(2.9 -1.78261e-14 0)
(2.9 -2.1361e-14 0)
(2.9 1.9113e-14 0)
(2.9 1.0817e-14 0)
(2.9 -7.73818e-15 0)
(2.9 -1.83255e-14 0)
(2.9 -3.11606e-14 0)
(2.9 -3.59429e-14 0)
(2.9 -1.74234e-14 0)
(2.9 -2.56207e-14 0)
(2.9 2.86096e-14 0)
(2.9 -4.53615e-15 0)
(2.9 1.12608e-14 0)
(2.9 -1.51398e-14 0)
(2.9 7.7117e-15 0)
(2.9 2.2492e-14 0)
(2.9 -1.24077e-14 0)
(2.9 9.42243e-15 0)
(2.9 2.44795e-14 0)
(2.9 3.50495e-15 0)
(2.9 4.33621e-14 0)
(2.9 3.53856e-14 0)
(2.9 -1.38202e-14 0)
(2.9 1.17201e-14 0)
(2.9 6.16169e-16 0)
(2.9 -9.79625e-15 0)
(2.9 1.77623e-14 0)
(2.9 2.32538e-15 0)
(2.9 -4.04567e-14 0)
(2.9 1.57133e-15 0)
(2.9 7.44049e-15 0)
(2.9 1.23498e-14 0)
(2.9 -2.2466e-15 0)
(2.9 -1.00569e-14 0)
(2.9 -7.30394e-15 0)
(2.9 3.0578e-14 0)
(2.9 1.82011e-14 0)
(2.9 1.40355e-14 0)
(2.9 3.04544e-15 0)
(2.9 -1.47513e-14 0)
(2.9 -9.8933e-15 0)
(2.9 -2.50764e-14 0)
(2.9 -9.98229e-15 0)
(2.9 -8.8288e-15 0)
(2.9 -4.1357e-15 0)
(2.9 -3.64274e-14 0)
(2.9 -3.82308e-15 0)
(2.9 -9.68673e-15 0)
(2.9 -2.67774e-14 0)
(2.9 -3.19536e-14 0)
(2.9 -2.80788e-15 0)
(2.9 -2.71219e-15 0)
(2.9 1.92157e-14 0)
(2.9 2.96935e-14 0)
(2.9 -1.15321e-14 0)
(2.9 -2.2469e-15 0)
(2.9 2.13905e-14 0)
(2.9 2.56689e-14 0)
(2.9 1.0052e-14 0)
(2.9 1.3535e-14 0)
(2.9 5.44445e-15 0)
(2.9 -7.94637e-14 0)
(2.9 -4.40215e-15 0)
(2.9 6.60621e-16 0)
(2.9 2.41881e-14 0)
(2.9 -3.52276e-14 0)
(2.9 -3.76117e-14 0)
(2.9 -3.5339e-14 0)
(2.9 -6.86897e-15 0)
(2.9 2.43455e-15 0)
(2.9 9.728e-15 0)
(2.9 -1.02198e-14 0)
(2.9 3.82215e-14 0)
(2.9 2.41192e-14 0)
(2.9 3.76247e-14 0)
(2.9 -3.45899e-14 0)
(2.9 -5.04128e-15 0)
(2.9 4.005e-14 0)
(2.9 4.73024e-14 0)
(2.9 2.47736e-14 0)
(2.9 2.44398e-14 0)
(2.9 1.1461e-14 0)
(2.9 -3.52842e-14 0)
(2.9 -2.74741e-15 0)
(2.9 1.16151e-14 0)
(2.9 1.75512e-14 0)
(2.9 4.56653e-14 0)
(2.9 -6.4098e-15 0)
(2.9 -5.31111e-14 0)
(2.9 3.35883e-14 0)
(2.9 1.81605e-14 0)
(2.9 2.59863e-14 0)
(2.9 4.51808e-14 0)
(2.9 1.49738e-14 0)
(2.9 -3.25988e-14 0)
(2.9 3.33577e-14 0)
(2.9 1.79916e-14 0)
(2.9 5.05998e-15 0)
(2.9 2.64069e-14 0)
(2.9 -3.81352e-15 0)
(2.9 -7.98857e-15 0)
(2.9 -3.39396e-14 0)
(2.9 -7.55108e-15 0)
(2.9 -1.50496e-14 0)
(2.9 1.46941e-14 0)
(2.9 -3.82652e-14 0)
(2.9 -1.70221e-14 0)
(2.9 3.46564e-15 0)
(2.9 -1.20521e-14 0)
(2.9 1.70352e-15 0)
(2.9 1.28122e-14 0)
(2.9 -4.82573e-15 0)
(2.9 2.26118e-14 0)
(2.9 2.48999e-14 0)
(2.9 3.43195e-14 0)
(2.9 1.917e-14 0)
(2.9 -2.11654e-15 0)
(2.9 1.98831e-14 0)
(2.9 -2.72591e-14 0)
(2.9 5.67903e-14 0)
(2.9 7.31633e-16 0)
(2.9 -1.63627e-14 0)
(2.9 -1.84401e-14 0)
(2.9 2.56405e-14 0)
(2.9 1.83393e-14 0)
(2.9 1.23513e-14 0)
(2.9 3.06325e-15 0)
(2.9 -4.8597e-15 0)
(2.9 1.90163e-14 0)
(2.9 3.98923e-15 0)
(2.9 -4.57169e-14 0)
(2.9 6.71979e-15 0)
(2.9 2.3321e-14 0)
(2.9 6.96062e-15 0)
(2.9 -1.40469e-15 0)
(2.9 1.93808e-15 0)
(2.9 -1.96363e-14 0)
(2.9 1.40016e-14 0)
(2.9 3.27036e-14 0)
(2.9 -1.008e-14 0)
(2.9 -2.83099e-14 0)
(2.9 -3.11009e-14 0)
(2.9 1.36438e-14 0)
(2.9 -1.20824e-14 0)
(2.9 -2.04738e-16 0)
(2.9 1.54593e-14 0)
(2.9 4.75548e-14 0)
(2.9 -2.04927e-15 0)
(2.9 2.54844e-15 0)
(2.9 8.62061e-15 0)
(2.9 -2.8364e-14 0)
(2.9 1.11961e-14 0)
(2.9 2.92079e-14 0)
(2.9 1.09772e-14 0)
(2.9 1.70107e-15 0)
(2.9 -5.05284e-14 0)
(2.9 -5.88184e-14 0)
(2.9 -2.25889e-14 0)
(2.9 -7.59792e-15 0)
(2.9 1.57803e-14 0)
(2.9 -1.40666e-14 0)
(2.9 1.37769e-14 0)
(2.9 -3.0347e-14 0)
(2.9 -1.6086e-15 0)
(2.9 1.95585e-15 0)
(2.9 2.76391e-14 0)
(2.9 -1.13818e-15 0)
(2.9 6.1457e-15 0)
(2.9 3.52899e-15 0)
(2.9 -8.32901e-15 0)
(2.9 2.26157e-14 0)
(2.9 -6.29601e-15 0)
(2.9 -6.4199e-15 0)
(2.9 -6.30885e-16 0)
(2.9 7.45959e-15 0)
(2.9 6.65394e-15 0)
(2.9 3.55664e-15 0)
(2.9 2.15073e-14 0)
(2.9 -1.36673e-14 0)
(2.9 -1.20218e-14 0)
(2.9 -1.19283e-14 0)
(2.9 2.80169e-14 0)
(2.9 -5.85571e-14 0)
(2.9 -2.53274e-15 0)
(2.9 1.662e-14 0)
(2.9 3.17892e-14 0)
(2.9 2.89973e-14 0)
(2.9 2.24517e-14 0)
(2.9 1.46031e-14 0)
(2.9 -1.29669e-14 0)
(2.9 -6.36122e-15 0)
(2.9 -1.80917e-14 0)
(2.9 -6.44004e-16 0)
(2.9 -1.80208e-14 0)
(2.9 -4.111e-15 0)
(2.9 1.76876e-14 0)
(2.9 -1.3969e-14 0)
(2.9 -6.68718e-15 0)
(2.9 -1.71321e-14 0)
(2.9 2.74568e-14 0)
(2.9 -1.86858e-14 0)
(2.9 -1.74466e-14 0)
(2.9 1.14743e-14 0)
(2.9 -1.29579e-14 0)
(2.9 -3.25055e-15 0)
(2.9 -9.90457e-16 0)
(2.9 2.27262e-14 0)
(2.9 -1.27678e-15 0)
(2.9 4.22722e-14 0)
(2.9 5.04469e-16 0)
(2.9 -1.41809e-14 0)
(2.9 -7.3747e-15 0)
(2.9 -2.25214e-14 0)
(2.9 -1.20995e-14 0)
(2.9 1.60286e-14 0)
(2.9 -6.06598e-14 0)
(2.9 -3.93824e-14 0)
(2.9 -1.45626e-14 0)
(2.9 -1.44054e-14 0)
(2.9 -1.36376e-14 0)
(2.9 -3.0464e-14 0)
(2.9 9.00086e-15 0)
(2.9 2.10089e-14 0)
(2.9 4.11006e-14 0)
(2.9 1.00947e-14 0)
(2.9 -1.76815e-15 0)
(2.9 -1.8525e-14 0)
(2.9 -7.83513e-15 0)
(2.9 3.83514e-15 0)
(2.9 5.3645e-15 0)
(2.9 -4.30709e-15 0)
(2.9 1.36675e-15 0)
(2.9 -8.54803e-15 0)
(2.9 -2.60302e-14 0)
(2.9 -3.3671e-14 0)
(2.9 1.36563e-14 0)
(2.9 3.4986e-15 0)
(2.9 -2.0735e-14 0)
(2.9 -3.17716e-14 0)
(2.9 -1.94273e-14 0)
(2.9 -7.44941e-16 0)
(2.9 7.02274e-14 0)
(2.9 2.23043e-15 0)
(2.9 -1.61094e-14 0)
(2.9 1.20576e-14 0)
(2.9 5.40648e-14 0)
(2.9 9.19213e-14 0)
(2.9 2.03228e-14 0)
(2.9 3.45543e-15 0)
(2.9 -1.54633e-14 0)
(2.9 -4.45469e-14 0)
(2.9 -3.09855e-14 0)
(2.9 -1.23828e-14 0)
(2.9 2.86443e-15 0)
(2.9 -1.51504e-14 0)
(2.9 1.97938e-14 0)
(2.9 3.1733e-14 0)
(2.9 -2.1965e-15 0)
(2.9 -1.28152e-14 0)
(2.9 -3.63801e-14 0)
(2.9 5.32074e-15 0)
(2.9 1.79579e-14 0)
(2.9 8.7204e-15 0)
(2.9 -3.47201e-15 0)
(2.9 -7.26471e-16 0)
(2.9 -2.82104e-14 0)
(2.9 1.36658e-14 0)
(2.9 1.49923e-14 0)
(2.9 6.39641e-14 0)
(2.9 1.31343e-15 0)
(2.9 -2.38124e-15 0)
(2.9 4.32801e-14 0)
(2.9 4.41589e-15 0)
(2.9 2.67691e-15 0)
(2.9 -2.94142e-15 0)
(2.9 -2.31245e-14 0)
(2.9 -1.79757e-15 0)
(2.9 2.37308e-14 0)
(2.9 6.59352e-15 0)
(2.9 -6.04816e-14 0)
(2.9 -7.80961e-15 0)
(2.9 2.03928e-14 0)
(2.9 4.81876e-14 0)
(2.9 6.76894e-14 0)
(2.9 2.01604e-14 0)
(2.9 1.02327e-15 0)
(2.9 -1.30641e-15 0)
(2.9 -3.867e-18 0)
(2.9 1.58357e-14 0)
(2.9 -1.83527e-15 0)
(2.9 9.18057e-15 0)
(2.9 2.66601e-14 0)
(2.9 -8.6578e-17 0)
(2.9 -1.36192e-14 0)
(2.9 -1.49313e-14 0)
(2.9 -1.91437e-14 0)
(2.9 -3.19063e-14 0)
(2.9 -3.86173e-15 0)
(2.9 -2.19791e-14 0)
(2.9 -9.78517e-18 0)
(2.9 -8.10477e-15 0)
(2.9 1.51492e-14 0)
(2.9 1.00927e-14 0)
(2.9 3.97237e-15 0)
(2.9 -2.11503e-14 0)
(2.9 1.32193e-14 0)
(2.9 3.21479e-14 0)
(2.9 -9.29698e-16 0)
(2.9 -8.75553e-15 0)
(2.9 -5.36658e-15 0)
(2.9 -2.69216e-14 0)
(2.9 -4.33079e-14 0)
(2.9 -2.95725e-14 0)
(2.9 -2.5547e-14 0)
(2.9 -3.36858e-14 0)
(2.9 1.00309e-14 0)
(2.9 1.20917e-14 0)
(2.9 8.42988e-15 0)
(2.9 -1.18262e-14 0)
(2.9 -5.89138e-14 0)
(2.9 1.4485e-14 0)
(2.9 2.93106e-14 0)
(2.9 -8.34636e-15 0)
(2.9 1.08663e-14 0)
(2.9 2.86693e-15 0)
(2.9 -1.90883e-14 0)
(2.9 -1.38661e-14 0)
(2.9 1.07297e-14 0)
(2.9 4.32364e-14 0)
(2.9 -1.86487e-14 0)
(2.9 -5.68118e-15 0)
(2.9 -1.11825e-14 0)
(2.9 3.28595e-14 0)
(2.9 1.57842e-14 0)
(2.9 -4.30037e-14 0)
(2.9 7.76282e-15 0)
(2.9 2.59706e-14 0)
(2.9 2.4193e-14 0)
(2.9 1.85411e-14 0)
(2.9 4.37032e-14 0)
(2.9 1.61917e-14 0)
(2.9 4.16318e-14 0)
(2.9 3.12313e-14 0)
(2.9 2.41731e-14 0)
(2.9 1.28841e-14 0)
(2.9 2.40024e-14 0)
(2.9 -5.68516e-15 0)
(2.9 -2.10227e-15 0)
(2.9 7.59695e-15 0)
(2.9 -2.90618e-14 0)
(2.9 1.30764e-14 0)
(2.9 2.01712e-14 0)
(2.9 -3.39627e-14 0)
(2.9 -1.95123e-15 0)
(2.9 2.84647e-14 0)
(2.9 -2.24142e-14 0)
(2.9 -1.50592e-14 0)
(2.9 1.74431e-14 0)
(2.9 -5.13683e-15 0)
(2.9 7.52852e-15 0)
(2.9 -3.02931e-14 0)
(2.9 -2.345e-14 0)
(2.9 -1.34784e-14 0)
(2.9 -7.53156e-15 0)
(2.9 -1.00649e-15 0)
(2.9 -3.33869e-18 0)
(2.9 -2.18379e-14 0)
(2.9 2.73636e-15 0)
(2.9 -2.28754e-14 0)
(2.9 4.05584e-15 0)
(2.9 1.73674e-14 0)
(2.9 -1.58018e-14 0)
(2.9 -6.17531e-14 0)
(2.9 -2.07778e-14 0)
(2.9 -1.4442e-14 0)
(2.9 -2.50187e-14 0)
(2.9 5.73154e-15 0)
(2.9 1.61127e-14 0)
(2.9 8.10542e-15 0)
(2.9 -1.73847e-14 0)
(2.9 -1.69914e-14 0)
(2.9 7.16888e-15 0)
(2.9 -2.529e-15 0)
(2.9 4.59444e-15 0)
(2.9 -4.52041e-15 0)
(2.9 1.05529e-14 0)
(2.9 -9.29783e-15 0)
(2.9 1.78256e-14 0)
(2.9 -2.30505e-14 0)
(2.9 1.44095e-14 0)
(2.9 2.14203e-15 0)
(2.9 -1.98516e-14 0)
(2.9 1.40207e-14 0)
(2.9 5.59678e-15 0)
(2.9 -1.52243e-14 0)
(2.9 2.08159e-14 0)
(2.9 -9.71515e-16 0)
(2.9 -4.16863e-15 0)
(2.9 3.93018e-15 0)
(2.9 5.35677e-14 0)
(2.9 5.20425e-16 0)
(2.9 -5.69286e-15 0)
(2.9 2.11505e-15 0)
(2.9 -3.75403e-14 0)
(2.9 -1.27911e-14 0)
(2.9 1.96198e-14 0)
(2.9 -3.33741e-14 0)
(2.9 -1.5779e-14 0)
(2.9 -9.20593e-15 0)
(2.9 1.7664e-15 0)
(2.9 -2.16615e-14 0)
(2.9 6.79458e-15 0)
(2.9 -2.9633e-15 0)
(2.9 -1.52147e-14 0)
(2.9 3.27319e-14 0)
(2.9 -2.06096e-14 0)
(2.9 1.05138e-14 0)
(2.9 -3.03106e-14 0)
(2.9 -1.06989e-14 0)
(2.9 1.50419e-14 0)
(2.9 -3.87165e-14 0)
(2.9 -3.66606e-14 0)
(2.9 8.57324e-15 0)
(2.9 -6.12343e-15 0)
(2.9 -1.3267e-14 0)
(2.9 -6.09667e-15 0)
(2.9 1.17093e-14 0)
(2.9 4.13764e-14 0)
(2.9 5.92016e-14 0)
(2.9 7.1805e-15 0)
(2.9 2.38029e-14 0)
(2.9 4.40784e-14 0)
(2.9 7.40663e-15 0)
(2.9 1.8609e-14 0)
(2.9 1.30191e-14 0)
(2.9 1.68233e-14 0)
(2.9 -1.6588e-14 0)
(2.9 3.32269e-14 0)
(2.9 2.00128e-14 0)
(2.9 -1.18237e-14 0)
(2.9 -1.72508e-14 0)
(2.9 -2.20944e-14 0)
(2.9 -8.32304e-15 0)
(2.9 2.07245e-14 0)
(2.9 -1.37322e-14 0)
(2.9 9.5651e-15 0)
(2.9 -3.9002e-15 0)
(2.9 2.18281e-14 0)
(2.9 -1.38166e-14 0)
(2.9 -1.79683e-15 0)
(2.9 5.14507e-15 0)
(2.9 -4.55937e-14 0)
(2.9 -6.15809e-16 0)
(2.9 8.46173e-15 0)
(2.9 3.85038e-14 0)
(2.9 -1.47742e-14 0)
(2.9 -1.34896e-14 0)
(2.9 5.38709e-15 0)
(2.9 -1.25652e-14 0)
(2.9 -2.44221e-14 0)
(2.9 -1.51675e-14 0)
(2.9 -2.49931e-14 0)
(2.9 -4.32707e-14 0)
(2.9 1.26083e-14 0)
(2.9 -1.42033e-14 0)
(2.9 4.61389e-15 0)
(2.9 -4.85547e-14 0)
(2.9 -9.05412e-15 0)
(2.9 -1.16409e-14 0)
(2.9 7.64536e-14 0)
(2.9 -3.19514e-14 0)
(2.9 -2.12524e-14 0)
(2.9 -1.68382e-14 0)
(2.9 -5.80945e-14 0)
(2.9 8.84524e-15 0)
(2.9 -2.66239e-15 0)
(2.9 -1.90881e-14 0)
(2.9 -4.27025e-14 0)
(2.9 3.79876e-14 0)
(2.9 -3.15312e-15 0)
(2.9 1.79043e-14 0)
(2.9 2.05996e-14 0)
(2.9 3.69232e-14 0)
(2.9 -6.75723e-15 0)
(2.9 -2.17338e-14 0)
(2.9 3.52645e-16 0)
(2.9 9.43057e-15 0)
(2.9 2.59669e-14 0)
(2.9 4.50734e-14 0)
(2.9 -2.01579e-14 0)
(2.9 7.17979e-15 0)
(2.9 4.61021e-14 0)
(2.9 7.68293e-15 0)
(2.9 -2.42977e-14 0)
(2.9 3.24508e-14 0)
(2.9 1.75396e-14 0)
(2.9 -1.23065e-14 0)
(2.9 -4.8354e-14 0)
(2.9 2.34893e-14 0)
(2.9 4.07499e-15 0)
(2.9 -6.02739e-15 0)
(2.9 -3.22347e-14 0)
(2.9 2.22633e-15 0)
(2.9 1.59617e-14 0)
(2.9 -5.36486e-15 0)
(2.9 6.25133e-15 0)
(2.9 -6.95357e-15 0)
(2.9 -9.15836e-15 0)
(2.9 -1.34619e-14 0)
(2.9 -2.20814e-14 0)
(2.9 -5.36405e-14 0)
(2.9 -5.59267e-14 0)
(2.9 -3.05031e-14 0)
(2.9 -2.19275e-14 0)
(2.9 -1.50609e-14 0)
(2.9 -2.36016e-14 0)
(2.9 -5.17465e-14 0)
(2.9 -3.42063e-14 0)
(2.9 -3.83855e-14 0)
(2.9 -3.31734e-14 0)
(2.9 2.99376e-14 0)
(2.9 -4.31851e-14 0)
(2.9 -3.5512e-14 0)
(2.9 -1.16017e-14 0)
(2.9 1.05826e-14 0)
(2.9 8.71514e-16 0)
(2.9 -4.97366e-15 0)
(2.9 9.82923e-17 0)
(2.9 -2.06879e-14 0)
(2.9 -1.14367e-14 0)
(2.9 -7.28579e-15 0)
(2.9 -2.52199e-14 0)
(2.9 -1.2924e-14 0)
(2.9 -4.68236e-14 0)
(2.9 -2.11386e-14 0)
(2.9 -1.8525e-14 0)
(2.9 -1.46188e-14 0)
(2.9 -6.83404e-14 0)
(2.9 4.09801e-14 0)
(2.9 -2.24803e-14 0)
(2.9 1.21927e-14 0)
(2.9 1.59917e-14 0)
(2.9 2.13913e-15 0)
(2.9 2.39865e-14 0)
(2.9 7.91209e-15 0)
(2.9 3.73937e-15 0)
(2.9 -2.16843e-14 0)
(2.9 1.11513e-15 0)
(2.9 -2.51415e-14 0)
(2.9 -1.42101e-14 0)
(2.9 1.17915e-14 0)
(2.9 -1.67316e-14 0)
(2.9 -1.01727e-14 0)
(2.9 2.1729e-14 0)
(2.9 -3.81055e-15 0)
(2.9 -1.79473e-14 0)
(2.9 -1.48615e-14 0)
(2.9 -4.05306e-14 0)
(2.9 -4.56972e-14 0)
(2.9 9.11385e-15 0)
(2.9 -1.11881e-14 0)
(2.9 9.70949e-15 0)
(2.9 4.07517e-16 0)
(2.9 -1.44057e-14 0)
(2.9 -9.22547e-15 0)
(2.9 2.2551e-14 0)
(2.9 7.48479e-15 0)
(2.9 7.97787e-15 0)
(2.9 -3.07149e-14 0)
(2.9 -9.47077e-15 0)
(2.9 -1.93868e-14 0)
(2.9 -2.75337e-14 0)
(2.9 -1.02121e-14 0)
(2.9 -4.27057e-16 0)
(2.9 -5.94114e-15 0)
(2.9 -1.00068e-14 0)
(2.9 -2.75727e-15 0)
(2.9 -7.07478e-15 0)
(2.9 -1.94918e-14 0)
(2.9 4.51123e-15 0)
(2.9 2.70368e-14 0)
(2.9 2.33861e-14 0)
(2.9 -2.20684e-14 0)
(2.9 -1.98333e-14 0)
(2.9 -5.779e-16 0)
(2.9 4.23159e-16 0)
(2.9 8.25894e-15 0)
(2.9 -1.05721e-14 0)
(2.9 4.22049e-16 0)
(2.9 -1.30384e-14 0)
(2.9 -1.53863e-14 0)
(2.9 -1.88237e-14 0)
(2.9 3.11468e-14 0)
(2.9 2.53738e-14 0)
(2.9 -1.86551e-14 0)
(2.9 -2.66468e-14 0)
(2.9 -1.98903e-14 0)
(2.9 1.9021e-14 0)
(2.9 7.26193e-15 0)
(2.9 -4.27064e-15 0)
(2.9 -1.31719e-14 0)
(2.9 1.07157e-14 0)
(2.9 -1.69456e-14 0)
(2.9 2.9779e-15 0)
(2.9 -2.13573e-14 0)
(2.9 7.16299e-15 0)
(2.9 1.83169e-15 0)
(2.9 -1.76012e-14 0)
(2.9 -2.14519e-14 0)
(2.9 -1.23657e-14 0)
(2.9 2.09495e-14 0)
(2.9 -6.49504e-14 0)
(2.9 -6.94466e-15 0)
(2.9 -9.3343e-15 0)
(2.9 -5.61796e-14 0)
(2.9 -1.675e-14 0)
(2.9 2.0636e-14 0)
(2.9 3.92027e-14 0)
(2.9 -3.37068e-14 0)
(2.9 4.39992e-14 0)
(2.9 2.97282e-14 0)
(2.9 4.39399e-14 0)
(2.9 1.24792e-14 0)
(2.9 -2.98421e-14 0)
(2.9 1.21572e-14 0)
(2.9 -3.72577e-15 0)
(2.9 -3.14968e-14 0)
(2.9 -5.56585e-14 0)
(2.9 -2.30412e-14 0)
(2.9 2.83078e-14 0)
(2.9 8.07911e-15 0)
(2.9 1.29325e-14 0)
(2.9 -1.56337e-14 0)
(2.9 2.94045e-14 0)
(2.9 5.1867e-14 0)
(2.9 4.30797e-14 0)
(2.9 6.44583e-14 0)
(2.9 -9.07122e-15 0)
(2.9 6.62645e-15 0)
(2.9 3.59407e-14 0)
(2.9 3.48679e-14 0)
(2.9 2.44739e-14 0)
(2.9 4.05913e-14 0)
(2.9 -3.44391e-14 0)
(2.9 -2.15212e-14 0)
(2.9 2.51237e-14 0)
(2.9 5.40793e-14 0)
(2.9 8.95134e-15 0)
(2.9 4.77465e-14 0)
(2.9 -1.85181e-14 0)
(2.9 -1.54045e-14 0)
(2.9 2.41067e-14 0)
(2.9 2.66146e-14 0)
(2.9 5.23681e-14 0)
(2.9 3.72307e-14 0)
(2.9 4.33614e-14 0)
(2.9 3.81628e-14 0)
(2.9 7.00065e-14 0)
(2.9 2.62075e-14 0)
(2.9 7.23683e-15 0)
(2.9 -1.9282e-14 0)
(2.9 -2.60527e-14 0)
(2.9 -1.25092e-14 0)
(2.9 -2.24807e-15 0)
(2.9 -3.19002e-15 0)
(2.9 -2.95088e-15 0)
(2.9 2.40369e-14 0)
(2.9 -5.88882e-15 0)
(2.9 4.09698e-15 0)
(2.9 5.51122e-14 0)
(2.9 6.98743e-15 0)
(2.9 -1.38743e-14 0)
(2.9 1.415e-14 0)
(2.9 -2.85303e-14 0)
(2.9 -4.07389e-14 0)
(2.9 -1.07977e-14 0)
(2.9 3.64275e-14 0)
(2.9 5.42323e-14 0)
(2.9 -1.11424e-14 0)
(2.9 2.54221e-14 0)
(2.9 7.98152e-16 0)
(2.9 2.1342e-14 0)
(2.9 1.52553e-15 0)
(2.9 2.16578e-14 0)
(2.9 2.93988e-14 0)
(2.9 -9.17898e-15 0)
(2.9 -3.70236e-14 0)
(2.9 -4.96641e-14 0)
(2.9 -3.70047e-14 0)
(2.9 1.09849e-14 0)
(2.9 6.39928e-15 0)
(2.9 -2.36956e-14 0)
(2.9 -4.04982e-14 0)
(2.9 -7.89716e-15 0)
(2.9 3.46167e-14 0)
(2.9 1.42942e-14 0)
(2.9 1.12155e-14 0)
(2.9 -3.536e-14 0)
(2.9 1.04426e-14 0)
(2.9 -8.91491e-15 0)
(2.9 9.11759e-15 0)
(2.9 3.6133e-14 0)
(2.9 2.30014e-14 0)
(2.9 -8.62113e-15 0)
(2.9 6.91231e-15 0)
(2.9 -2.5877e-14 0)
(2.9 4.9908e-14 0)
(2.9 -1.85899e-15 0)
(2.9 1.43874e-14 0)
(2.9 -2.30631e-14 0)
(2.9 -1.36179e-14 0)
(2.9 1.03586e-14 0)
(2.9 3.56233e-15 0)
(2.9 2.8751e-14 0)
(2.9 3.06133e-15 0)
(2.9 2.95554e-15 0)
(2.9 1.81311e-14 0)
(2.9 2.04016e-14 0)
(2.9 3.0104e-15 0)
(2.9 1.63748e-14 0)
(2.9 2.49193e-14 0)
(2.9 -4.13178e-15 0)
(2.9 -1.66024e-14 0)
(2.9 5.15835e-16 0)
(2.9 2.9837e-14 0)
(2.9 -1.01214e-14 0)
(2.9 -1.44723e-14 0)
(2.9 2.98161e-15 0)
(2.9 -2.21506e-14 0)
(2.9 2.5884e-14 0)
(2.9 8.07021e-15 0)
(2.9 2.98349e-15 0)
(2.9 2.26923e-14 0)
(2.9 2.90154e-14 0)
(2.9 1.74367e-14 0)
(2.9 1.69089e-14 0)
(2.9 1.38257e-14 0)
(2.9 1.45541e-14 0)
(2.9 9.3993e-15 0)
(2.9 1.0774e-14 0)
(2.9 2.62925e-14 0)
(2.9 8.02911e-15 0)
(2.9 2.37113e-15 0)
(2.9 3.15163e-15 0)
(2.9 -3.99531e-15 0)
(2.9 1.60104e-14 0)
(2.9 1.36216e-14 0)
(2.9 9.83352e-15 0)
(2.9 2.42545e-14 0)
(2.9 4.80301e-15 0)
(2.9 5.13751e-14 0)
(2.9 9.60257e-15 0)
(2.9 1.92041e-14 0)
(2.9 -9.02909e-15 0)
(2.9 -1.09465e-14 0)
(2.9 1.75895e-14 0)
(2.9 -1.69141e-14 0)
(2.9 7.2788e-15 0)
(2.9 4.0024e-14 0)
(2.9 -1.01808e-14 0)
(2.9 -2.63802e-14 0)
(2.9 1.9488e-14 0)
(2.9 -8.21724e-15 0)
(2.9 2.71273e-15 0)
(2.9 -2.40607e-14 0)
(2.9 -1.63841e-14 0)
(2.9 1.62601e-15 0)
(2.9 -3.23516e-14 0)
(2.9 -2.28845e-14 0)
(2.9 2.62655e-15 0)
(2.9 9.19423e-15 0)
(2.9 1.21278e-14 0)
(2.9 1.6843e-14 0)
(2.9 2.79234e-14 0)
(2.9 -2.32471e-14 0)
(2.9 1.40482e-16 0)
(2.9 1.37165e-14 0)
(2.9 5.95047e-15 0)
(2.9 -2.36955e-14 0)
(2.9 -3.44272e-16 0)
(2.9 6.98887e-14 0)
(2.9 -1.0551e-14 0)
(2.9 2.66387e-14 0)
(2.9 2.04194e-14 0)
(2.9 2.37597e-14 0)
(2.9 6.46651e-16 0)
(2.9 -2.23535e-14 0)
(2.9 -1.99262e-14 0)
(2.9 1.08652e-14 0)
(2.9 -5.21294e-14 0)
(2.9 4.17697e-15 0)
(2.9 5.32752e-14 0)
(2.9 3.30407e-14 0)
(2.9 3.48821e-14 0)
(2.9 5.9824e-14 0)
(2.9 5.035e-15 0)
(2.9 -7.65627e-15 0)
(2.9 -3.26373e-15 0)
(2.9 6.00807e-14 0)
(2.9 1.78747e-14 0)
(2.9 4.39038e-16 0)
(2.9 -1.47885e-14 0)
(2.9 3.60257e-14 0)
(2.9 -7.82166e-15 0)
(2.9 -2.88176e-14 0)
(2.9 1.24815e-14 0)
(2.9 4.54659e-14 0)
(2.9 8.79633e-14 0)
(2.9 5.40969e-14 0)
(2.9 -4.63442e-16 0)
(2.9 1.6423e-14 0)
(2.9 9.0741e-14 0)
(2.9 4.58665e-14 0)
(2.9 5.901e-15 0)
(2.9 1.88357e-14 0)
(2.9 -7.13778e-15 0)
(2.9 -1.82752e-14 0)
(2.9 3.07195e-14 0)
(2.9 8.04975e-15 0)
(2.9 -2.03227e-14 0)
(2.9 -4.59967e-14 0)
(2.9 5.61891e-16 0)
(2.9 -1.90497e-14 0)
(2.9 7.5187e-14 0)
(2.9 1.88567e-14 0)
(2.9 4.18027e-14 0)
(2.9 -2.29952e-14 0)
(2.9 -4.66084e-14 0)
(2.9 2.6396e-14 0)
(2.9 2.73879e-14 0)
(2.9 4.03112e-14 0)
(2.9 -3.20917e-15 0)
(2.9 2.8327e-14 0)
(2.9 2.05836e-15 0)
(2.9 -2.66092e-14 0)
(2.9 -2.25464e-16 0)
(2.9 1.38087e-14 0)
(2.9 2.69557e-14 0)
(2.9 -7.35245e-15 0)
(2.9 -2.22746e-14 0)
(2.9 -2.57086e-14 0)
(2.9 -9.75864e-15 0)
(2.9 2.26776e-15 0)
(2.9 -3.53107e-14 0)
(2.9 -3.65344e-15 0)
(2.9 1.00303e-14 0)
(2.9 1.63687e-14 0)
(2.9 8.58331e-15 0)
(2.9 1.87635e-14 0)
(2.9 -2.98635e-14 0)
(2.9 -8.20983e-16 0)
(2.9 3.08936e-15 0)
(2.9 1.30535e-14 0)
(2.9 2.19505e-14 0)
(2.9 2.9361e-14 0)
(2.9 3.18632e-15 0)
(2.9 -1.7944e-14 0)
(2.9 7.38786e-15 0)
(2.9 1.31012e-14 0)
(2.9 4.42815e-15 0)
(2.9 -1.60208e-14 0)
(2.9 -2.56581e-14 0)
(2.9 -1.0047e-14 0)
(2.9 3.24022e-14 0)
(2.9 1.93611e-14 0)
(2.9 -3.83254e-15 0)
(2.9 2.13983e-14 0)
(2.9 3.96648e-14 0)
(2.9 1.89001e-14 0)
(2.9 -5.52147e-15 0)
(2.9 -1.32799e-14 0)
(2.9 3.29787e-14 0)
(2.9 2.70077e-14 0)
(2.9 2.51144e-14 0)
(2.9 3.19953e-14 0)
(2.9 -2.84251e-15 0)
(2.9 6.01605e-15 0)
(2.9 3.22256e-14 0)
(2.9 -1.9328e-14 0)
(2.9 -1.06981e-14 0)
(2.9 -9.27695e-15 0)
(2.9 -1.93151e-14 0)
(2.9 2.44936e-14 0)
(2.9 3.64827e-14 0)
(2.9 2.40569e-14 0)
(2.9 8.02141e-15 0)
(2.9 -8.9644e-15 0)
(2.9 -7.27359e-15 0)
(2.9 6.17375e-15 0)
(2.9 7.00288e-15 0)
(2.9 -3.51244e-15 0)
(2.9 -7.67007e-15 0)
(2.9 -7.48854e-16 0)
(2.9 -1.14046e-14 0)
(2.9 -6.97212e-15 0)
(2.9 -1.06743e-14 0)
(2.9 -1.19764e-14 0)
(2.9 1.0498e-14 0)
(2.9 -1.60747e-14 0)
(2.9 2.1407e-15 0)
(2.9 -3.79201e-14 0)
(2.9 -2.80083e-18 0)
(2.9 -1.51549e-14 0)
(2.9 -4.07362e-14 0)
(2.9 -3.79387e-15 0)
(2.9 -1.71762e-14 0)
(2.9 -1.32063e-14 0)
(2.9 6.95421e-15 0)
(2.9 1.95395e-14 0)
(2.9 -1.72428e-14 0)
(2.9 -2.39105e-14 0)
(2.9 -2.88376e-14 0)
(2.9 -2.55336e-14 0)
(2.9 -1.99844e-14 0)
(2.9 -1.03603e-14 0)
(2.9 -3.79892e-15 0)
(2.9 -5.96472e-16 0)
(2.9 -3.71833e-15 0)
(2.9 -2.80083e-14 0)
(2.9 1.95196e-14 0)
(2.9 1.43491e-14 0)
(2.9 -2.12895e-14 0)
(2.9 -1.83748e-14 0)
(2.9 5.71616e-15 0)
(2.9 2.62834e-14 0)
(2.9 2.07355e-14 0)
(2.9 -1.67224e-15 0)
(2.9 -2.19744e-14 0)
(2.9 -3.67206e-16 0)
(2.9 9.76427e-15 0)
(2.9 2.44077e-14 0)
(2.9 1.31034e-14 0)
(2.9 5.32894e-15 0)
(2.9 1.50763e-15 0)
(2.9 1.30102e-14 0)
(2.9 1.07118e-14 0)
(2.9 -1.55263e-14 0)
(2.9 -4.39473e-14 0)
(2.9 -1.20242e-15 0)
(2.9 9.97596e-15 0)
(2.9 1.28483e-14 0)
(2.9 -5.76316e-15 0)
(2.9 6.27292e-15 0)
(2.9 -4.12639e-14 0)
(2.9 -1.42768e-14 0)
(2.9 -3.70656e-14 0)
(2.9 1.76535e-14 0)
(2.9 3.13778e-14 0)
(2.9 -2.40929e-14 0)
(2.9 1.14317e-14 0)
(2.9 -1.10224e-14 0)
(2.9 4.64221e-15 0)
(2.9 1.80768e-14 0)
(2.9 7.55069e-15 0)
(2.9 1.87969e-14 0)
(2.9 5.90996e-15 0)
(2.9 -2.66043e-15 0)
(2.9 3.46906e-15 0)
(2.9 -3.40043e-14 0)
(2.9 -1.08417e-14 0)
(2.9 2.96563e-15 0)
(2.9 -4.89644e-15 0)
(2.9 -1.15601e-14 0)
(2.9 -3.97284e-14 0)
(2.9 -2.68261e-14 0)
(2.9 -2.76903e-14 0)
(2.9 1.64743e-14 0)
(2.9 -2.29685e-14 0)
(2.9 -1.28515e-14 0)
(2.9 2.56291e-14 0)
(2.9 -3.57935e-14 0)
(2.9 3.03385e-14 0)
(2.9 1.88409e-14 0)
(2.9 -2.42375e-14 0)
(2.9 -4.85535e-14 0)
(2.9 1.07941e-14 0)
(2.9 2.08051e-14 0)
(2.9 -2.71914e-14 0)
(2.9 -3.96903e-14 0)
(2.9 3.06697e-14 0)
(2.9 -1.3625e-16 0)
(2.9 2.80421e-14 0)
(2.9 3.68845e-14 0)
(2.9 -1.35206e-14 0)
(2.9 6.52044e-15 0)
(2.9 4.28225e-14 0)
(2.9 -9.9242e-16 0)
(2.9 -3.2577e-14 0)
(2.9 -1.1215e-15 0)
(2.9 -4.41504e-15 0)
(2.9 3.67679e-15 0)
(2.9 2.00902e-14 0)
(2.9 1.28519e-14 0)
(2.9 -4.85567e-14 0)
(2.9 1.3246e-15 0)
(2.9 -1.30245e-15 0)
(2.9 -1.46131e-14 0)
(2.9 -5.81275e-14 0)
(2.9 2.88279e-15 0)
(2.9 5.81666e-14 0)
(2.9 2.80976e-14 0)
(2.9 -1.82096e-14 0)
(2.9 -2.67183e-15 0)
(2.9 -1.18433e-14 0)
(2.9 1.18318e-14 0)
(2.9 1.45928e-15 0)
(2.9 -1.49665e-14 0)
(2.9 4.6548e-14 0)
(2.9 -3.91465e-15 0)
(2.9 4.48499e-14 0)
(2.9 9.9353e-15 0)
(2.9 1.62717e-14 0)
(2.9 4.22073e-14 0)
(2.9 2.68665e-16 0)
(2.9 4.6837e-15 0)
(2.9 1.04504e-13 0)
(2.9 8.46997e-14 0)
(2.9 2.23186e-14 0)
(2.9 -3.5033e-14 0)
(2.9 -1.56843e-14 0)
(2.9 -1.5106e-14 0)
(2.9 -2.77465e-14 0)
(2.9 1.07537e-14 0)
(2.9 8.79976e-15 0)
(2.9 -5.18882e-14 0)
(2.9 6.34117e-15 0)
(2.9 9.05137e-15 0)
(2.9 2.20127e-15 0)
(2.9 -2.33944e-14 0)
(2.9 -8.36442e-15 0)
(2.9 -1.56049e-14 0)
(2.9 7.76659e-15 0)
(2.9 4.16341e-14 0)
(2.9 -1.3315e-14 0)
(2.9 -5.53195e-16 0)
(2.9 -5.78158e-15 0)
(2.9 1.85685e-14 0)
(2.9 1.84648e-14 0)
(2.9 4.67448e-15 0)
(2.9 -3.01603e-14 0)
(2.9 1.71157e-14 0)
(2.9 1.12479e-14 0)
(2.9 -2.1872e-14 0)
(2.9 -5.91014e-15 0)
(2.9 -8.51854e-15 0)
(2.9 -9.70884e-15 0)
(2.9 8.4348e-15 0)
(2.9 -7.34943e-15 0)
(2.9 -5.01251e-16 0)
(2.9 -1.11871e-14 0)
(2.9 -6.44881e-15 0)
(2.9 -4.74471e-15 0)
(2.9 2.07522e-15 0)
(2.9 8.68449e-16 0)
(2.9 -9.48588e-15 0)
(2.9 5.41403e-15 0)
(2.9 1.87683e-14 0)
(2.9 1.12274e-14 0)
(2.9 1.48898e-14 0)
(2.9 6.13969e-15 0)
(2.9 -1.87445e-14 0)
(2.9 -1.6356e-14 0)
(2.9 -1.11181e-14 0)
(2.9 3.10625e-15 0)
(2.9 1.56052e-14 0)
(2.9 -1.53042e-14 0)
(2.9 -2.16785e-14 0)
(2.9 2.0709e-14 0)
(2.9 4.62763e-15 0)
(2.9 -7.35947e-15 0)
(2.9 2.41783e-14 0)
(2.9 1.74105e-14 0)
(2.9 1.61443e-14 0)
(2.9 8.60292e-15 0)
(2.9 1.2295e-15 0)
(2.9 3.31932e-14 0)
(2.9 -1.14489e-14 0)
(2.9 -2.46723e-16 0)
(2.9 1.69926e-14 0)
(2.9 -4.4788e-15 0)
(2.9 -2.73438e-14 0)
(2.9 -6.10335e-15 0)
(2.9 -1.03291e-14 0)
(2.9 5.48309e-15 0)
(2.9 -7.12618e-15 0)
(2.9 1.01935e-14 0)
(2.9 -1.35553e-14 0)
(2.9 1.81299e-15 0)
(2.9 -6.16766e-15 0)
(2.9 5.85272e-14 0)
(2.9 -8.30797e-15 0)
(2.9 4.82684e-17 0)
(2.9 -1.61363e-14 0)
(2.9 -1.85428e-14 0)
(2.9 7.8238e-14 0)
(2.9 3.7016e-14 0)
(2.9 2.25252e-15 0)
(2.9 6.60129e-15 0)
(2.9 9.00536e-16 0)
(2.9 -3.19567e-14 0)
(2.9 2.46735e-14 0)
(2.9 -1.20733e-14 0)
(2.9 -3.31249e-14 0)
(2.9 2.05893e-14 0)
(2.9 -2.26813e-14 0)
(2.9 -4.62013e-14 0)
(2.9 -2.83465e-14 0)
(2.9 -1.98857e-14 0)
(2.9 -3.90645e-16 0)
(2.9 -9.43104e-15 0)
(2.9 -1.16042e-14 0)
(2.9 -2.1652e-14 0)
(2.9 -2.99322e-15 0)
(2.9 1.5183e-14 0)
(2.9 -4.54918e-14 0)
(2.9 -2.87388e-15 0)
(2.9 2.72406e-14 0)
(2.9 5.21326e-14 0)
(2.9 -7.96691e-15 0)
(2.9 -3.05665e-14 0)
(2.9 -3.33661e-14 0)
(2.9 -1.23052e-14 0)
(2.9 -1.33752e-14 0)
(2.9 -1.12168e-14 0)
(2.9 -1.02615e-14 0)
(2.9 -2.46638e-14 0)
(2.9 -2.09386e-14 0)
(2.9 -3.4996e-14 0)
(2.9 -1.79642e-14 0)
(2.9 -5.08882e-14 0)
(2.9 -2.00301e-16 0)
(2.9 1.68039e-14 0)
(2.9 -3.02289e-14 0)
(2.9 -1.92112e-14 0)
(2.9 -1.66318e-14 0)
(2.9 -4.1751e-14 0)
(2.9 -2.4886e-14 0)
(2.9 -2.62852e-14 0)
(2.9 3.67926e-14 0)
(2.9 2.73875e-14 0)
(2.9 1.37021e-15 0)
(2.9 1.62218e-14 0)
(2.9 3.58344e-15 0)
(2.9 1.26961e-15 0)
(2.9 2.22112e-14 0)
(2.9 8.96947e-15 0)
(2.9 -1.43708e-14 0)
(2.9 -2.34106e-14 0)
(2.9 -1.49253e-14 0)
(2.9 3.66844e-14 0)
(2.9 4.59645e-14 0)
(2.9 2.65498e-14 0)
(2.9 -7.77937e-15 0)
(2.9 2.47567e-14 0)
(2.9 3.54194e-14 0)
(2.9 2.8819e-14 0)
(2.9 -1.3655e-14 0)
(2.9 -1.83357e-14 0)
(2.9 -1.41972e-15 0)
(2.9 1.23693e-14 0)
(2.9 2.23085e-14 0)
(2.9 -3.48315e-15 0)
(2.9 2.62742e-15 0)
(2.9 -8.74012e-15 0)
(2.9 -1.82504e-15 0)
(2.9 2.71884e-14 0)
(2.9 -2.89523e-14 0)
(2.9 2.42676e-15 0)
(2.9 1.05583e-14 0)
(2.9 -3.76891e-14 0)
(2.9 -1.16663e-14 0)
(2.9 -1.54318e-14 0)
(2.9 -2.05685e-14 0)
(2.9 -8.72507e-15 0)
(2.9 -3.87287e-15 0)
(2.9 2.12433e-14 0)
(2.9 3.12848e-14 0)
(2.9 3.7695e-14 0)
(2.9 3.08187e-14 0)
(2.9 2.68321e-14 0)
(2.9 -2.54983e-14 0)
(2.9 -7.09803e-15 0)
(2.9 9.27112e-15 0)
(2.9 -1.20358e-14 0)
(2.9 -1.83714e-14 0)
(2.9 1.62048e-14 0)
(2.9 3.87502e-14 0)
(2.9 -1.11813e-14 0)
(2.9 2.5311e-15 0)
(2.9 2.03751e-15 0)
(2.9 -1.0416e-14 0)
(2.9 -2.48371e-14 0)
(2.9 -1.25322e-14 0)
(2.9 1.68559e-14 0)
(2.9 -7.86264e-15 0)
(2.9 -1.40767e-14 0)
(2.9 5.49522e-16 0)
(2.9 -3.26059e-14 0)
(2.9 4.38386e-14 0)
(2.9 4.89818e-14 0)
(2.9 -9.506e-15 0)
(2.9 6.27402e-15 0)
(2.9 2.59672e-14 0)
(2.9 2.34252e-14 0)
(2.9 1.35866e-14 0)
(2.9 1.89843e-14 0)
(2.9 -1.28895e-14 0)
(2.9 -2.26873e-14 0)
(2.9 -8.72231e-15 0)
(2.9 -1.51186e-14 0)
(2.9 -2.93863e-14 0)
(2.9 -9.72603e-15 0)
(2.9 -1.80464e-14 0)
(2.9 2.63187e-14 0)
(2.9 -4.46481e-14 0)
(2.9 -1.73304e-14 0)
(2.9 -5.81886e-15 0)
(2.9 -9.60964e-15 0)
(2.9 -7.04309e-15 0)
(2.9 1.64761e-14 0)
(2.9 -6.31634e-15 0)
(2.9 1.80632e-14 0)
(2.9 3.69536e-14 0)
(2.9 -1.40956e-14 0)
(2.9 -8.74378e-15 0)
(2.9 2.17927e-14 0)
(2.9 -2.19274e-15 0)
(2.9 1.71882e-16 0)
(2.9 2.48461e-15 0)
(2.9 1.76891e-14 0)
(2.9 4.04458e-14 0)
(2.9 -6.03069e-15 0)
(2.9 1.447e-14 0)
(2.9 -7.43192e-15 0)
(2.9 1.20392e-15 0)
(2.9 1.28072e-14 0)
(2.9 2.4714e-14 0)
(2.9 2.02183e-14 0)
(2.9 2.22647e-14 0)
(2.9 8.29888e-15 0)
(2.9 -2.00912e-14 0)
(2.9 1.26807e-14 0)
(2.9 2.76952e-14 0)
(2.9 2.78626e-15 0)
(2.9 -3.3616e-15 0)
(2.9 -8.44724e-15 0)