/*--------------------------------*- C++ -*----------------------------------*\
| =========                 |                                                 |
| \\      /  F ield         | OpenFOAM: The Open Source CFD Toolbox           |
|  \\    /   O peration     | Version:  2412                                  |
|   \\  /    A nd           | Website:  www.openfoam.com                      |
|    \\/     M anipulation  |                                                 |
\*---------------------------------------------------------------------------*/
FoamFile
{
    version     2.0;
    format      ascii;
    arch        "LSB;label=32;scalar=64";
    class       surfaceScalarField;
    location    "0.0126264";
    object      phiRhoY_Y_N2;
}
// * * * * * * * * * * * * * * * * * * * * * * * * * * * * * * * * * * * * * //

dimensions      [1 0 -1 0 0 0 0];

internalField   nonuniform List<scalar> 
99
(
0
1.13687e-13
9.09495e-13
1.61663e-10
8.43032e-08
3.51397e-05
0.00977654
0.869344
13.7307
54.2814
102.916
141.92
171.462
195.69
217.299
237.509
256.757
275.163
292.753
309.54
325.542
340.778
355.277
369.037
382.091
394.41
406.006
416.926
427.024
436.716
445.558
453.87
461.851
468.689
475.377
481.759
487.317
492.218
497.044
501.823
505.652
508.686
511.466
514.079
516.606
520.689
521.543
518.315
517.076
520.548
531.316
533.094
520.618
503.526
506.222
544.004
549.796
519.042
488.265
496.187
554.835
561.632
524.161
486.228
488.054
546.242
561.722
533.948
488.572
486.078
516.598
561.184
561.913
518.683
473.92
472.62
501.349
565.868
596.797
572.537
471.713
337.775
221.554
137.009
78.8792
42.0571
21.8145
10.7517
5.05165
2.23372
0.93233
0.364628
0.137246
0.0442396
-0.000139323
-0.000460751
-1.05611e-05
0
0
)
;

boundaryField
{
    sides
    {
        type            calculated;
        value           uniform 0;
    }
    empty
    {
        type            empty;
    }
}


// ************************************************************************* //
