/*--------------------------------*- C++ -*----------------------------------*\
| =========                 |                                                 |
| \\      /  F ield         | OpenFOAM: The Open Source CFD Toolbox           |
|  \\    /   O peration     | Version:  2412                                  |
|   \\  /    A nd           | Website:  www.openfoam.com                      |
|    \\/     M anipulation  |                                                 |
\*---------------------------------------------------------------------------*/
FoamFile
{
    version     2.0;
    format      ascii;
    arch        "LSB;label=32;scalar=64";
    class       volVectorField;
    location    "0.000130367";
    object      U;
}
// * * * * * * * * * * * * * * * * * * * * * * * * * * * * * * * * * * * * * //

dimensions      [0 1 -1 0 0 0 0];

internalField   nonuniform List<vector> 
1800
(
(2.9 -8.33881e-14 0)
(2.9 -3.85069e-15 0)
(2.9 4.73896e-14 0)
(2.9 -5.91872e-14 0)
(2.9 -2.56615e-14 0)
(2.9 -1.0059e-13 0)
(2.9 -6.0841e-14 0)
(2.9 -4.87402e-14 0)
(2.9 -3.35808e-14 0)
(2.9 -2.71198e-15 0)
(2.9 -1.27758e-14 0)
(2.9 -6.00197e-14 0)
(2.9 -1.14194e-13 0)
(2.9 -9.02772e-14 0)
(2.9 -7.95569e-14 0)
(2.9 -4.98366e-14 0)
(2.9 -4.46307e-15 0)
(2.9 -3.1654e-14 0)
(2.9 -3.23053e-14 0)
(2.9 -4.5495e-14 0)
(2.9 -2.54836e-14 0)
(2.9 -2.25664e-14 0)
(2.9 4.13044e-14 0)
(2.9 1.00903e-14 0)
(2.9 -2.49628e-14 0)
(2.9 -8.32821e-14 0)
(2.9 -4.74145e-14 0)
(2.9 -3.42133e-14 0)
(2.9 2.59155e-14 0)
(2.9 4.08911e-14 0)
(2.9 -4.4653e-14 0)
(2.9 3.63523e-17 0)
(2.9 -6.72555e-14 0)
(2.9 -5.87311e-14 0)
(2.9 -9.96933e-15 0)
(2.9 2.58043e-15 0)
(2.9 -3.43531e-14 0)
(2.9 4.35794e-15 0)
(2.9 5.22485e-15 0)
(2.9 -4.27274e-15 0)
(2.9 8.06766e-15 0)
(2.9 3.39486e-14 0)
(2.9 5.61467e-15 0)
(2.9 6.19936e-15 0)
(2.9 -2.63199e-14 0)
(2.9 -5.26958e-14 0)
(2.9 -3.81643e-15 0)
(2.9 6.53814e-14 0)
(2.9 4.66085e-14 0)
(2.9 4.69909e-14 0)
(2.9 2.26836e-14 0)
(2.9 -1.00498e-14 0)
(2.9 3.112e-14 0)
(2.9 -6.02775e-15 0)
(2.9 4.50548e-14 0)
(2.9 3.10598e-14 0)
(2.9 -3.39752e-14 0)
(2.9 -3.41981e-14 0)
(2.9 -7.20999e-14 0)
(2.9 -9.35506e-14 0)
(2.9 -1.70616e-13 0)
(2.9 -6.82174e-14 0)
(2.9 2.01276e-14 0)
(2.9 -6.61202e-14 0)
(2.9 -5.89626e-14 0)
(2.9 -2.14669e-13 0)
(2.9 -1.41682e-13 0)
(2.9 -1.10119e-13 0)
(2.9 -5.78727e-14 0)
(2.9 1.01226e-14 0)
(2.9 -3.58437e-14 0)
(2.9 -1.41417e-13 0)
(2.9 -2.30658e-13 0)
(2.9 -1.90035e-13 0)
(2.9 -6.04209e-14 0)
(2.9 -3.58379e-14 0)
(2.9 -2.36481e-15 0)
(2.9 -9.63854e-14 0)
(2.9 -9.20247e-14 0)
(2.9 -9.99856e-14 0)
(2.9 -8.29434e-14 0)
(2.9 1.0912e-14 0)
(2.9 1.45344e-13 0)
(2.9 2.91846e-14 0)
(2.9 -7.56447e-14 0)
(2.9 -1.84564e-13 0)
(2.9 -1.09385e-13 0)
(2.9 -6.1673e-14 0)
(2.9 3.23094e-14 0)
(2.9 -1.84591e-14 0)
(2.9 -1.19326e-13 0)
(2.9 -4.40837e-14 0)
(2.9 -1.62393e-13 0)
(2.9 -1.40343e-13 0)
(2.9 -5.65365e-14 0)
(2.9 -4.8338e-14 0)
(2.9 -5.9842e-14 0)
(2.9 2.03701e-14 0)
(2.9 -3.01826e-14 0)
(2.9 -9.30001e-14 0)
(2.9 -1.7714e-15 0)
(2.9 3.93041e-14 0)
(2.9 1.08187e-14 0)
(2.9 1.42981e-14 0)
(2.9 -9.05345e-14 0)
(2.9 -1.56938e-13 0)
(2.9 -2.24769e-14 0)
(2.9 6.99677e-14 0)
(2.9 1.2928e-13 0)
(2.9 9.44914e-14 0)
(2.9 -1.52976e-14 0)
(2.9 -8.99383e-14 0)
(2.9 -5.45815e-14 0)
(2.9 -3.89462e-14 0)
(2.9 5.3481e-14 0)
(2.9 3.46537e-14 0)
(2.9 -6.1337e-14 0)
(2.9 -6.52082e-14 0)
(2.9 -1.74574e-13 0)
(2.9 -1.9522e-13 0)
(2.9 -1.10773e-13 0)
(2.9 -9.97529e-14 0)
(2.9 -3.07866e-14 0)
(2.9 -4.44621e-14 0)
(2.9 -4.54578e-14 0)
(2.9 -1.41665e-13 0)
(2.9 -1.32549e-13 0)
(2.9 -6.73582e-14 0)
(2.9 -3.88566e-15 0)
(2.9 -4.67045e-14 0)
(2.9 -1.15684e-13 0)
(2.9 -1.95933e-13 0)
(2.9 -2.10203e-13 0)
(2.9 -1.80139e-13 0)
(2.9 -1.14244e-13 0)
(2.9 1.0477e-14 0)
(2.9 1.09933e-14 0)
(2.9 -7.55352e-14 0)
(2.9 -1.6156e-14 0)
(2.9 -5.49464e-14 0)
(2.9 9.11124e-15 0)
(2.9 5.02635e-14 0)
(2.9 1.71737e-13 0)
(2.9 7.52453e-14 0)
(2.9 -1.03996e-13 0)
(2.9 -1.82457e-13 0)
(2.9 -6.69426e-14 0)
(2.9 -6.6451e-14 0)
(2.9 -1.10252e-14 0)
(2.9 -1.2021e-13 0)
(2.9 -1.22193e-13 0)
(2.9 -1.09422e-13 0)
(2.9 -1.57267e-13 0)
(2.9 -1.62679e-13 0)
(2.9 -8.70207e-14 0)
(2.9 -5.75669e-14 0)
(2.9 -1.64588e-14 0)
(2.9 4.62182e-15 0)
(2.9 -1.36769e-13 0)
(2.9 -1.8287e-13 0)
(2.9 -6.87656e-14 0)
(2.9 -3.29156e-14 0)
(2.9 3.9059e-14 0)
(2.9 -2.11325e-14 0)
(2.9 -7.51262e-14 0)
(2.9 -9.02187e-14 0)
(2.9 -6.44034e-14 0)
(2.9 -2.56161e-14 0)
(2.9 5.66435e-14 0)
(2.9 -3.66386e-14 0)
(2.9 -5.9849e-14 0)
(2.9 -7.68399e-14 0)
(2.9 -1.56236e-13 0)
(2.9 -1.5438e-13 0)
(2.9 -3.6204e-14 0)
(2.9 -5.14309e-14 0)
(2.9 -8.80697e-14 0)
(2.9 -6.29372e-14 0)
(2.9 -1.53405e-13 0)
(2.9 -1.58699e-13 0)
(2.9 -3.44359e-14 0)
(2.9 -1.27328e-13 0)
(2.9 -6.29239e-14 0)
(2.9 -9.83762e-14 0)
(2.9 -3.11761e-14 0)
(2.9 -9.84397e-14 0)
(2.9 -1.29548e-13 0)
(2.9 -9.09317e-14 0)
(2.9 -3.71826e-14 0)
(2.9 -1.25479e-13 0)
(2.9 -1.69579e-13 0)
(2.9 -2.32811e-13 0)
(2.9 -2.01255e-13 0)
(2.9 -1.78397e-13 0)
(2.9 -2.1617e-13 0)
(2.9 -1.0084e-13 0)
(2.9 -1.08946e-13 0)
(2.9 -8.41747e-14 0)
(2.9 9.54838e-15 0)
(2.9 -7.7167e-15 0)
(2.9 6.73225e-14 0)
(2.9 1.07033e-13 0)
(2.9 4.02584e-14 0)
(2.9 2.11688e-14 0)
(2.9 -6.51942e-14 0)
(2.9 -1.37804e-13 0)
(2.9 -6.27327e-14 0)
(2.9 -4.21664e-14 0)
(2.9 -1.63531e-14 0)
(2.9 -6.30515e-14 0)
(2.9 -6.9197e-14 0)
(2.9 -5.61081e-14 0)
(2.9 -1.35092e-13 0)
(2.9 -7.56268e-14 0)
(2.9 -1.13158e-13 0)
(2.9 -3.26484e-14 0)
(2.9 1.97573e-14 0)
(2.9 -2.261e-14 0)
(2.9 -1.34985e-13 0)
(2.9 -1.80242e-13 0)
(2.9 -9.12832e-14 0)
(2.9 -7.01833e-14 0)
(2.9 -5.7249e-14 0)
(2.9 -5.10701e-14 0)
(2.9 -9.2726e-14 0)
(2.9 -8.37585e-14 0)
(2.9 -4.22737e-14 0)
(2.9 -3.47409e-14 0)
(2.9 -9.33062e-14 0)
(2.9 -1.23178e-13 0)
(2.9 -1.0853e-13 0)
(2.9 -3.78602e-14 0)
(2.9 -1.31582e-13 0)
(2.9 -2.02543e-13 0)
(2.9 -1.57264e-13 0)
(2.9 -1.09925e-13 0)
(2.9 -5.36406e-14 0)
(2.9 -4.0878e-14 0)
(2.9 -4.24734e-14 0)
(2.9 -3.73444e-14 0)
(2.9 -6.30327e-14 0)
(2.9 -1.9006e-13 0)
(2.9 -1.11661e-13 0)
(2.9 -9.46914e-14 0)
(2.9 -7.27439e-14 0)
(2.9 -8.01608e-14 0)
(2.9 -6.67266e-14 0)
(2.9 -5.70904e-14 0)
(2.9 -3.08707e-14 0)
(2.9 -1.4002e-13 0)
(2.9 -1.76455e-13 0)
(2.9 -2.36845e-13 0)
(2.9 -1.49123e-13 0)
(2.9 -9.00776e-14 0)
(2.9 -1.53806e-13 0)
(2.9 -2.53465e-13 0)
(2.9 -1.59533e-13 0)
(2.9 -3.26675e-14 0)
(2.9 2.65064e-14 0)
(2.9 8.28753e-15 0)
(2.9 4.50394e-14 0)
(2.9 4.18898e-14 0)
(2.9 -6.756e-14 0)
(2.9 -7.35174e-14 0)
(2.9 -3.65477e-14 0)
(2.9 -1.21062e-13 0)
(2.9 -5.83497e-14 0)
(2.9 -8.37411e-14 0)
(2.9 -1.05301e-14 0)
(2.9 -6.90429e-15 0)
(2.9 1.09632e-15 0)
(2.9 -6.52765e-16 0)
(2.9 -3.65487e-14 0)
(2.9 -2.45371e-14 0)
(2.9 -8.31553e-14 0)
(2.9 -8.76264e-14 0)
(2.9 -5.6977e-14 0)
(2.9 -8.65802e-14 0)
(2.9 -1.06721e-13 0)
(2.9 -1.41513e-13 0)
(2.9 -6.0177e-14 0)
(2.9 -9.82718e-14 0)
(2.9 -1.51525e-13 0)
(2.9 -8.41454e-14 0)
(2.9 -9.83822e-14 0)
(2.9 -1.13321e-13 0)
(2.9 -3.01823e-14 0)
(2.9 2.26535e-15 0)
(2.9 -1.42158e-13 0)
(2.9 -1.32445e-13 0)
(2.9 -7.55125e-14 0)
(2.9 -6.99105e-14 0)
(2.9 -1.60169e-13 0)
(2.9 -2.33374e-13 0)
(2.9 -2.29812e-13 0)
(2.9 -1.73466e-13 0)
(2.9 -4.00085e-14 0)
(2.9 -2.88323e-14 0)
(2.9 -2.57964e-14 0)
(2.9 6.38499e-14 0)
(2.9 -1.09031e-13 0)
(2.9 -1.46813e-13 0)
(2.9 -1.06641e-13 0)
(2.9 -1.1975e-13 0)
(2.9 -2.97456e-14 0)
(2.9 -6.11144e-15 0)
(2.9 5.57219e-14 0)
(2.9 3.62061e-14 0)
(2.9 -8.601e-14 0)
(2.9 -1.60234e-13 0)
(2.9 -2.06157e-13 0)
(2.9 -1.83734e-13 0)
(2.9 -1.53002e-13 0)
(2.9 -1.03181e-13 0)
(2.9 -1.25771e-13 0)
(2.9 -2.477e-13 0)
(2.9 -1.05853e-13 0)
(2.9 -3.19439e-14 0)
(2.9 2.33795e-14 0)
(2.9 5.74522e-15 0)
(2.9 -5.9331e-14 0)
(2.9 -4.93892e-14 0)
(2.9 -4.34608e-14 0)
(2.9 3.45953e-15 0)
(2.9 -7.98042e-15 0)
(2.9 -3.61203e-14 0)
(2.9 2.13209e-14 0)
(2.9 -6.38985e-15 0)
(2.9 1.17101e-14 0)
(2.9 3.00377e-14 0)
(2.9 -5.44337e-14 0)
(2.9 -6.59547e-14 0)
(2.9 -9.41375e-15 0)
(2.9 -5.28019e-14 0)
(2.9 -1.23625e-13 0)
(2.9 -1.69172e-13 0)
(2.9 -1.66793e-13 0)
(2.9 -1.4021e-13 0)
(2.9 -1.79166e-13 0)
(2.9 -9.24538e-14 0)
(2.9 -1.31084e-13 0)
(2.9 -5.38618e-14 0)
(2.9 -5.71376e-14 0)
(2.9 1.21368e-14 0)
(2.9 -4.15907e-14 0)
(2.9 -3.09149e-14 0)
(2.9 -4.55838e-14 0)
(2.9 -6.6502e-14 0)
(2.9 -1.54685e-13 0)
(2.9 -7.9225e-14 0)
(2.9 -5.06498e-15 0)
(2.9 -9.47086e-14 0)
(2.9 -1.34974e-13 0)
(2.9 -2.69289e-13 0)
(2.9 -1.99776e-13 0)
(2.9 -1.57549e-13 0)
(2.9 -8.3013e-14 0)
(2.9 3.87999e-15 0)
(2.9 -5.71386e-14 0)
(2.9 2.09083e-14 0)
(2.9 -3.12342e-14 0)
(2.9 -2.10534e-14 0)
(2.9 -1.08451e-13 0)
(2.9 -5.90968e-14 0)
(2.9 5.85901e-14 0)
(2.9 5.53779e-14 0)
(2.9 1.19214e-13 0)
(2.9 9.18035e-14 0)
(2.9 -3.54663e-14 0)
(2.9 -1.19203e-13 0)
(2.9 -1.68097e-13 0)
(2.9 -1.24565e-13 0)
(2.9 -1.51267e-13 0)
(2.9 -1.08222e-13 0)
(2.9 -8.34089e-14 0)
(2.9 -1.67866e-13 0)
(2.9 -6.70212e-14 0)
(2.9 -3.93043e-14 0)
(2.9 -5.36619e-14 0)
(2.9 -7.333e-14 0)
(2.9 -1.54255e-13 0)
(2.9 -1.41175e-13 0)
(2.9 -2.32126e-14 0)
(2.9 -3.59692e-14 0)
(2.9 -2.37635e-15 0)
(2.9 3.37383e-14 0)
(2.9 5.76049e-14 0)
(2.9 4.24273e-14 0)
(2.9 4.2198e-14 0)
(2.9 3.9649e-15 0)
(2.9 -9.68625e-14 0)
(2.9 -4.21803e-14 0)
(2.9 -5.83648e-14 0)
(2.9 -9.21884e-14 0)
(2.9 -1.81177e-13 0)
(2.9 -2.1478e-13 0)
(2.9 -1.77355e-13 0)
(2.9 -1.21044e-13 0)
(2.9 -1.65978e-13 0)
(2.9 -1.22209e-13 0)
(2.9 -1.52012e-13 0)
(2.9 -1.82826e-14 0)
(2.9 2.09448e-14 0)
(2.9 8.5584e-14 0)
(2.9 3.55295e-14 0)
(2.9 -5.67156e-14 0)
(2.9 -1.17828e-13 0)
(2.9 -9.08074e-14 0)
(2.9 -1.12252e-13 0)
(2.9 -3.88376e-14 0)
(2.9 -6.87163e-14 0)
(2.9 -1.53582e-13 0)
(2.9 -1.02479e-13 0)
(2.9 -1.89021e-13 0)
(2.9 -1.74508e-13 0)
(2.9 -1.34233e-13 0)
(2.9 -1.10039e-13 0)
(2.9 -6.52984e-14 0)
(2.9 -8.04564e-14 0)
(2.9 -7.04294e-15 0)
(2.9 -4.19584e-15 0)
(2.9 2.49405e-14 0)
(2.9 -1.16865e-13 0)
(2.9 -2.19096e-14 0)
(2.9 -1.92551e-14 0)
(2.9 1.11975e-13 0)
(2.9 1.78885e-13 0)
(2.9 1.15539e-13 0)
(2.9 6.39584e-15 0)
(2.9 -7.84423e-14 0)
(2.9 -7.89868e-14 0)
(2.9 -5.30421e-14 0)
(2.9 -1.57531e-13 0)
(2.9 -1.64907e-13 0)
(2.9 -1.00109e-13 0)
(2.9 -1.16712e-14 0)
(2.9 8.75206e-14 0)
(2.9 6.22702e-15 0)
(2.9 -1.11875e-13 0)
(2.9 -1.48824e-13 0)
(2.9 -1.30859e-13 0)
(2.9 -7.63827e-14 0)
(2.9 2.98554e-14 0)
(2.9 -8.73759e-14 0)
(2.9 3.27584e-15 0)
(2.9 -5.5552e-15 0)
(2.9 8.10941e-14 0)
(2.9 1.0726e-13 0)
(2.9 1.19846e-13 0)
(2.9 1.70806e-14 0)
(2.9 -2.02252e-14 0)
(2.9 9.3549e-15 0)
(2.9 -2.13281e-14 0)
(2.9 -5.20088e-14 0)
(2.9 -9.55229e-14 0)
(2.9 -1.1436e-13 0)
(2.9 -4.92142e-14 0)
(2.9 2.07079e-14 0)
(2.9 -8.42152e-14 0)
(2.9 -8.57385e-14 0)
(2.9 -6.95073e-14 0)
(2.9 -4.70288e-14 0)
(2.9 1.62456e-14 0)
(2.9 6.58103e-14 0)
(2.9 7.24223e-14 0)
(2.9 -3.95731e-14 0)
(2.9 -8.20423e-14 0)
(2.9 -5.71043e-14 0)
(2.9 -1.04959e-13 0)
(2.9 -7.45811e-14 0)
(2.9 -7.76822e-14 0)
(2.9 -1.26807e-13 0)
(2.9 -1.29238e-13 0)
(2.9 -9.05028e-14 0)
(2.9 -7.26639e-14 0)
(2.9 -6.87997e-14 0)
(2.9 -6.24807e-14 0)
(2.9 -8.00777e-14 0)
(2.9 -5.6973e-14 0)
(2.9 -3.10172e-14 0)
(2.9 -3.86402e-15 0)
(2.9 -3.14627e-15 0)
(2.9 -3.1608e-14 0)
(2.9 -2.61176e-14 0)
(2.9 -8.01222e-14 0)
(2.9 3.45817e-14 0)
(2.9 7.33611e-14 0)
(2.9 -1.65299e-15 0)
(2.9 5.38882e-14 0)
(2.9 -3.25831e-14 0)
(2.9 -4.66939e-14 0)
(2.9 -8.28946e-14 0)
(2.9 -1.60145e-13 0)
(2.9 -1.41882e-13 0)
(2.9 -7.9856e-14 0)
(2.9 5.59626e-14 0)
(2.9 9.33706e-14 0)
(2.9 4.62546e-14 0)
(2.9 -9.70672e-14 0)
(2.9 -1.30967e-13 0)
(2.9 -4.19219e-14 0)
(2.9 2.19421e-14 0)
(2.9 -6.21716e-14 0)
(2.9 -6.58495e-14 0)
(2.9 -4.12356e-15 0)
(2.9 1.66608e-14 0)
(2.9 1.23672e-13 0)
(2.9 1.03004e-13 0)
(2.9 9.6462e-14 0)
(2.9 5.27811e-14 0)
(2.9 5.64928e-14 0)
(2.9 -2.02485e-14 0)
(2.9 2.7567e-14 0)
(2.9 -3.68355e-14 0)
(2.9 3.77963e-15 0)
(2.9 1.14055e-14 0)
(2.9 5.79709e-14 0)
(2.9 7.10284e-14 0)
(2.9 3.25812e-14 0)
(2.9 1.32125e-14 0)
(2.9 1.69792e-14 0)
(2.9 4.96951e-14 0)
(2.9 6.62935e-14 0)
(2.9 5.58225e-14 0)
(2.9 9.25393e-14 0)
(2.9 8.70665e-14 0)
(2.9 2.90443e-16 0)
(2.9 -2.34484e-14 0)
(2.9 -1.24548e-15 0)
(2.9 1.27091e-14 0)
(2.9 9.79066e-15 0)
(2.9 8.87917e-15 0)
(2.9 -7.18676e-14 0)
(2.9 -4.28188e-14 0)
(2.9 3.71174e-14 0)
(2.9 -2.5374e-14 0)
(2.9 -2.36838e-14 0)
(2.9 -5.50561e-14 0)
(2.9 -3.83056e-14 0)
(2.9 -4.62937e-14 0)
(2.9 -2.14043e-14 0)
(2.9 -2.19357e-14 0)
(2.9 5.04637e-14 0)
(2.9 5.8301e-14 0)
(2.9 6.08377e-15 0)
(2.9 -6.06935e-14 0)
(2.9 -1.08973e-13 0)
(2.9 -2.68217e-14 0)
(2.9 8.67225e-14 0)
(2.9 5.58316e-15 0)
(2.9 1.69091e-14 0)
(2.9 -3.76911e-14 0)
(2.9 -9.31862e-14 0)
(2.9 -1.72943e-14 0)
(2.9 2.19206e-15 0)
(2.9 8.8988e-14 0)
(2.9 6.27928e-14 0)
(2.9 1.07596e-13 0)
(2.9 -1.0981e-14 0)
(2.9 -9.44628e-14 0)
(2.9 -6.22208e-14 0)
(2.9 -4.41544e-15 0)
(2.9 -1.11622e-13 0)
(2.9 -6.93496e-14 0)
(2.9 -6.94909e-14 0)
(2.9 3.13714e-14 0)
(2.9 4.49485e-14 0)
(2.9 7.75205e-14 0)
(2.9 5.95801e-14 0)
(2.9 2.95661e-14 0)
(2.9 6.26464e-15 0)
(2.9 -7.64163e-14 0)
(2.9 6.60858e-14 0)
(2.9 -4.09827e-15 0)
(2.9 1.20633e-13 0)
(2.9 1.08904e-13 0)
(2.9 7.80823e-14 0)
(2.9 1.57956e-14 0)
(2.9 -1.00397e-14 0)
(2.9 3.96199e-14 0)
(2.9 1.0468e-13 0)
(2.9 1.16781e-13 0)
(2.9 9.77618e-14 0)
(2.9 4.74785e-14 0)
(2.9 6.95532e-14 0)
(2.9 1.17399e-13 0)
(2.9 4.74833e-15 0)
(2.9 -1.19961e-14 0)
(2.9 8.96332e-14 0)
(2.9 1.1427e-13 0)
(2.9 3.41242e-14 0)
(2.9 8.99266e-14 0)
(2.9 -1.60549e-14 0)
(2.9 1.956e-14 0)
(2.9 4.68795e-14 0)
(2.9 1.44016e-14 0)
(2.9 -4.21061e-14 0)
(2.9 -8.91579e-14 0)
(2.9 -2.21266e-14 0)
(2.9 1.82989e-14 0)
(2.9 -7.08619e-14 0)
(2.9 2.02534e-16 0)
(2.9 1.07522e-13 0)
(2.9 4.85213e-14 0)
(2.9 -2.10232e-14 0)
(2.9 -1.47903e-13 0)
(2.9 -1.17235e-13 0)
(2.9 5.15877e-14 0)
(2.9 1.04038e-13 0)
(2.9 2.24232e-14 0)
(2.9 5.421e-14 0)
(2.9 5.51009e-14 0)
(2.9 5.40312e-14 0)
(2.9 6.23868e-14 0)
(2.9 6.36718e-14 0)
(2.9 1.80349e-13 0)
(2.9 8.98833e-14 0)
(2.9 9.38538e-14 0)
(2.9 1.05646e-13 0)
(2.9 -1.63787e-14 0)
(2.9 -9.24525e-14 0)
(2.9 -2.18903e-14 0)
(2.9 -1.02034e-13 0)
(2.9 -1.23474e-14 0)
(2.9 -3.69728e-14 0)
(2.9 -8.2867e-15 0)
(2.9 -6.53569e-14 0)
(2.9 4.12149e-14 0)
(2.9 -3.03586e-14 0)
(2.9 -2.47312e-14 0)
(2.9 1.03087e-14 0)
(2.9 -9.14138e-14 0)
(2.9 -6.26693e-15 0)
(2.9 4.05472e-15 0)
(2.9 1.15672e-13 0)
(2.9 1.98164e-13 0)
(2.9 1.27391e-13 0)
(2.9 1.02338e-14 0)
(2.9 2.60268e-14 0)
(2.9 1.07418e-13 0)
(2.9 1.01248e-13 0)
(2.9 3.70503e-14 0)
(2.9 8.36912e-14 0)
(2.9 1.67415e-14 0)
(2.9 -4.8202e-14 0)
(2.9 -6.49233e-15 0)
(2.9 -1.68631e-15 0)
(2.9 1.11749e-14 0)
(2.9 5.36667e-14 0)
(2.9 5.86954e-14 0)
(2.9 -1.71146e-14 0)
(2.9 6.71187e-14 0)
(2.9 8.1785e-16 0)
(2.9 2.66054e-14 0)
(2.9 -8.72351e-15 0)
(2.9 1.02329e-14 0)
(2.9 -1.15461e-14 0)
(2.9 -9.13713e-14 0)
(2.9 5.89438e-14 0)
(2.9 1.0598e-13 0)
(2.9 -3.13327e-14 0)
(2.9 1.61859e-14 0)
(2.9 4.1937e-14 0)
(2.9 1.11711e-15 0)
(2.9 -6.22507e-14 0)
(2.9 -1.23874e-13 0)
(2.9 -9.44782e-14 0)
(2.9 1.43258e-14 0)
(2.9 1.05802e-13 0)
(2.9 3.20344e-14 0)
(2.9 8.87692e-14 0)
(2.9 7.06608e-14 0)
(2.9 8.49218e-14 0)
(2.9 3.4234e-14 0)
(2.9 4.24763e-14 0)
(2.9 1.14447e-13 0)
(2.9 1.35514e-14 0)
(2.9 2.2279e-15 0)
(2.9 9.12475e-14 0)
(2.9 3.58372e-14 0)
(2.9 -1.57061e-14 0)
(2.9 -5.7175e-14 0)
(2.9 -4.30854e-14 0)
(2.9 3.95435e-15 0)
(2.9 -1.32469e-14 0)
(2.9 -2.67673e-14 0)
(2.9 -3.93401e-14 0)
(2.9 -4.36015e-14 0)
(2.9 -7.66568e-14 0)
(2.9 3.87673e-14 0)
(2.9 8.16755e-14 0)
(2.9 -1.67717e-14 0)
(2.9 -5.34274e-14 0)
(2.9 1.6382e-15 0)
(2.9 9.16403e-14 0)
(2.9 1.39506e-13 0)
(2.9 1.02138e-13 0)
(2.9 4.99241e-14 0)
(2.9 8.70947e-14 0)
(2.9 5.92653e-14 0)
(2.9 9.21817e-14 0)
(2.9 1.53282e-14 0)
(2.9 4.55653e-14 0)
(2.9 1.85474e-14 0)
(2.9 -7.82365e-14 0)
(2.9 -8.23783e-14 0)
(2.9 3.22756e-14 0)
(2.9 -1.45875e-14 0)
(2.9 -2.12121e-15 0)
(2.9 -6.26976e-15 0)
(2.9 -3.15655e-14 0)
(2.9 3.78234e-15 0)
(2.9 -7.50649e-16 0)
(2.9 4.56676e-14 0)
(2.9 4.04448e-15 0)
(2.9 1.70633e-14 0)
(2.9 -4.4315e-14 0)
(2.9 -6.07433e-14 0)
(2.9 4.62655e-14 0)
(2.9 1.46901e-13 0)
(2.9 2.13611e-14 0)
(2.9 5.8268e-16 0)
(2.9 -1.19013e-14 0)
(2.9 4.94141e-14 0)
(2.9 -1.674e-14 0)
(2.9 -3.70546e-14 0)
(2.9 -4.8373e-14 0)
(2.9 -3.96419e-14 0)
(2.9 -4.17946e-15 0)
(2.9 -4.21348e-15 0)
(2.9 7.5156e-14 0)
(2.9 7.87157e-14 0)
(2.9 1.14163e-13 0)
(2.9 9.11016e-14 0)
(2.9 5.07986e-14 0)
(2.9 -4.20298e-14 0)
(2.9 -4.0938e-14 0)
(2.9 -3.83347e-14 0)
(2.9 4.79855e-14 0)
(2.9 1.04955e-13 0)
(2.9 5.9523e-14 0)
(2.9 3.48436e-15 0)
(2.9 3.68291e-14 0)
(2.9 -9.2981e-15 0)
(2.9 -3.28947e-14 0)
(2.9 2.2319e-14 0)
(2.9 -4.97281e-14 0)
(2.9 -1.1036e-13 0)
(2.9 -6.7059e-14 0)
(2.9 6.54616e-14 0)
(2.9 1.15104e-13 0)
(2.9 2.76705e-14 0)
(2.9 3.67883e-15 0)
(2.9 5.79515e-14 0)
(2.9 9.21952e-14 0)
(2.9 7.46107e-14 0)
(2.9 8.99041e-14 0)
(2.9 8.11089e-14 0)
(2.9 1.42819e-13 0)
(2.9 7.21364e-14 0)
(2.9 4.29224e-14 0)
(2.9 -2.04837e-14 0)
(2.9 2.8217e-14 0)
(2.9 1.4996e-15 0)
(2.9 -6.49356e-14 0)
(2.9 -1.37781e-14 0)
(2.9 7.49731e-15 0)
(2.9 -3.78489e-14 0)
(2.9 1.06511e-14 0)
(2.9 4.97024e-14 0)
(2.9 2.93915e-14 0)
(2.9 3.53781e-15 0)
(2.9 4.24998e-14 0)
(2.9 6.08193e-14 0)
(2.9 6.39054e-14 0)
(2.9 3.76343e-14 0)
(2.9 -3.48154e-14 0)
(2.9 3.19478e-14 0)
(2.9 4.44672e-14 0)
(2.9 1.27737e-13 0)
(2.9 -5.73551e-14 0)
(2.9 -4.74995e-14 0)
(2.9 6.48156e-14 0)
(2.9 1.04096e-13 0)
(2.9 1.00586e-14 0)
(2.9 -1.6585e-15 0)
(2.9 1.12592e-14 0)
(2.9 -4.45807e-14 0)
(2.9 -7.25627e-14 0)
(2.9 4.30938e-14 0)
(2.9 8.7735e-14 0)
(2.9 9.68717e-14 0)
(2.9 1.85621e-13 0)
(2.9 1.34165e-13 0)
(2.9 2.94511e-14 0)
(2.9 -1.30273e-13 0)
(2.9 -2.26253e-14 0)
(2.9 4.11237e-14 0)
(2.9 5.21187e-14 0)
(2.9 1.58145e-13 0)
(2.9 1.31016e-13 0)
(2.9 7.80684e-14 0)
(2.9 1.11968e-13 0)
(2.9 3.57217e-14 0)
(2.9 4.90279e-14 0)
(2.9 1.82049e-14 0)
(2.9 -1.11214e-13 0)
(2.9 -1.62834e-13 0)
(2.9 -5.81834e-14 0)
(2.9 9.03406e-14 0)
(2.9 1.33542e-13 0)
(2.9 8.74696e-14 0)
(2.9 7.53466e-14 0)
(2.9 1.07649e-13 0)
(2.9 4.83853e-14 0)
(2.9 4.41614e-14 0)
(2.9 8.80934e-14 0)
(2.9 2.88794e-14 0)
(2.9 1.39713e-13 0)
(2.9 9.39995e-14 0)
(2.9 2.60488e-14 0)
(2.9 -6.5729e-14 0)
(2.9 -6.3191e-14 0)
(2.9 -7.64241e-14 0)
(2.9 -1.83754e-14 0)
(2.9 4.78597e-14 0)
(2.9 4.70851e-14 0)
(2.9 -7.74516e-15 0)
(2.9 6.30994e-14 0)
(2.9 8.7615e-14 0)
(2.9 8.60253e-14 0)
(2.9 5.82895e-14 0)
(2.9 5.32869e-14 0)
(2.9 1.77642e-14 0)
(2.9 3.0169e-15 0)
(2.9 1.23837e-14 0)
(2.9 -1.40482e-14 0)
(2.9 1.12193e-13 0)
(2.9 1.34197e-13 0)
(2.9 1.49985e-13 0)
(2.9 -1.6145e-13 0)
(2.9 -1.08566e-13 0)
(2.9 3.22388e-14 0)
(2.9 6.40845e-14 0)
(2.9 2.14017e-14 0)
(2.9 3.89319e-15 0)
(2.9 4.23172e-14 0)
(2.9 2.99248e-14 0)
(2.9 6.01871e-15 0)
(2.9 1.25152e-13 0)
(2.9 6.74269e-14 0)
(2.9 6.10362e-14 0)
(2.9 1.08894e-13 0)
(2.9 7.82422e-14 0)
(2.9 -3.21748e-14 0)
(2.9 -7.80536e-14 0)
(2.9 5.08806e-14 0)
(2.9 1.35583e-13 0)
(2.9 1.30919e-13 0)
(2.9 1.63077e-13 0)
(2.9 1.59864e-13 0)
(2.9 1.32039e-13 0)
(2.9 9.08705e-14 0)
(2.9 1.21454e-13 0)
(2.9 1.43964e-13 0)
(2.9 1.35067e-14 0)
(2.9 -5.37342e-14 0)
(2.9 -1.39288e-13 0)
(2.9 -1.37543e-14 0)
(2.9 7.79684e-14 0)
(2.9 8.38464e-14 0)
(2.9 3.72055e-14 0)
(2.9 -8.79249e-15 0)
(2.9 8.2791e-14 0)
(2.9 7.13317e-15 0)
(2.9 1.74473e-14 0)
(2.9 -1.9484e-14 0)
(2.9 -4.59181e-14 0)
(2.9 4.87457e-14 0)
(2.9 9.55818e-15 0)
(2.9 2.10297e-14 0)
(2.9 -3.27678e-14 0)
(2.9 -6.85883e-14 0)
(2.9 -1.12571e-13 0)
(2.9 -5.2224e-14 0)
(2.9 -5.00095e-14 0)
(2.9 1.90375e-14 0)
(2.9 -4.58603e-14 0)
(2.9 5.68755e-15 0)
(2.9 -6.42077e-14 0)
(2.9 8.02244e-15 0)
(2.9 1.90745e-15 0)
(2.9 -4.12929e-15 0)
(2.9 6.92369e-15 0)
(2.9 -2.15001e-14 0)
(2.9 -1.35557e-14 0)
(2.9 6.74907e-14 0)
(2.9 8.95483e-14 0)
(2.9 3.51104e-14 0)
(2.9 8.77377e-14 0)
(2.9 -8.08088e-14 0)
(2.9 -8.51059e-14 0)
(2.9 -4.05661e-14 0)
(2.9 3.52353e-14 0)
(2.9 5.45411e-14 0)
(2.9 4.04378e-14 0)
(2.9 5.20525e-15 0)
(2.9 3.82917e-14 0)
(2.9 3.70713e-14 0)
(2.9 9.70043e-14 0)
(2.9 4.06746e-14 0)
(2.9 1.31791e-14 0)
(2.9 2.49314e-14 0)
(2.9 4.57867e-14 0)
(2.9 3.24634e-14 0)
(2.9 1.93585e-14 0)
(2.9 6.07324e-14 0)
(2.9 1.18529e-13 0)
(2.9 1.58072e-13 0)
(2.9 1.47673e-13 0)
(2.9 1.25748e-13 0)
(2.9 8.8762e-14 0)
(2.9 6.80873e-14 0)
(2.9 1.24548e-13 0)
(2.9 6.18176e-14 0)
(2.9 6.91079e-14 0)
(2.9 4.61924e-15 0)
(2.9 3.68901e-14 0)
(2.9 4.79333e-14 0)
(2.9 4.49207e-14 0)
(2.9 1.4237e-14 0)
(2.9 1.05139e-13 0)
(2.9 1.6934e-14 0)
(2.9 8.79679e-15 0)
(2.9 1.76125e-14 0)
(2.9 -4.24939e-14 0)
(2.9 -9.40599e-14 0)
(2.9 5.60708e-15 0)
(2.9 -6.31069e-14 0)
(2.9 -9.79448e-14 0)
(2.9 -7.69225e-14 0)
(2.9 -2.80751e-14 0)
(2.9 -9.47239e-14 0)
(2.9 -5.04392e-14 0)
(2.9 -6.79548e-14 0)
(2.9 -1.46539e-13 0)
(2.9 -7.84473e-14 0)
(2.9 -8.92784e-14 0)
(2.9 -1.89604e-14 0)
(2.9 -8.55034e-14 0)
(2.9 -9.06139e-15 0)
(2.9 -3.70799e-14 0)
(2.9 2.69989e-14 0)
(2.9 1.16553e-15 0)
(2.9 -4.62267e-14 0)
(2.9 1.29416e-14 0)
(2.9 1.26333e-13 0)
(2.9 9.56357e-14 0)
(2.9 1.01962e-14 0)
(2.9 -5.4162e-14 0)
(2.9 -9.63449e-15 0)
(2.9 -1.12704e-13 0)
(2.9 -5.23983e-14 0)
(2.9 -4.88824e-14 0)
(2.9 2.2171e-14 0)
(2.9 1.01298e-13 0)
(2.9 3.2671e-14 0)
(2.9 2.66716e-14 0)
(2.9 8.1559e-14 0)
(2.9 8.26368e-14 0)
(2.9 8.93466e-14 0)
(2.9 5.94873e-14 0)
(2.9 -9.74838e-15 0)
(2.9 7.61151e-14 0)
(2.9 8.47638e-14 0)
(2.9 4.48267e-14 0)
(2.9 -3.68542e-14 0)
(2.9 6.28809e-14 0)
(2.9 2.12395e-13 0)
(2.9 1.41193e-13 0)
(2.9 5.05178e-14 0)
(2.9 4.43463e-14 0)
(2.9 2.43707e-14 0)
(2.9 7.37766e-14 0)
(2.9 -2.32372e-14 0)
(2.9 4.1342e-14 0)
(2.9 9.54358e-14 0)
(2.9 1.66581e-13 0)
(2.9 9.34151e-14 0)
(2.9 2.92772e-14 0)
(2.9 -3.607e-14 0)
(2.9 1.25154e-13 0)
(2.9 2.74024e-14 0)
(2.9 -4.45699e-14 0)
(2.9 4.62072e-14 0)
(2.9 -3.56617e-14 0)
(2.9 -6.55289e-14 0)
(2.9 3.72273e-14 0)
(2.9 -1.35127e-13 0)
(2.9 -8.84863e-14 0)
(2.9 -1.24353e-13 0)
(2.9 -4.8355e-14 0)
(2.9 -1.09902e-13 0)
(2.9 1.44058e-14 0)
(2.9 5.4323e-14 0)
(2.9 -5.37943e-14 0)
(2.9 -1.07475e-13 0)
(2.9 -8.25787e-14 0)
(2.9 -5.04326e-14 0)
(2.9 -2.51177e-14 0)
(2.9 -3.31401e-14 0)
(2.9 -7.87983e-14 0)
(2.9 5.12589e-14 0)
(2.9 -7.2601e-14 0)
(2.9 -3.55812e-14 0)
(2.9 3.95217e-14 0)
(2.9 1.10304e-13 0)
(2.9 1.34777e-13 0)
(2.9 8.74473e-15 0)
(2.9 -1.54887e-13 0)
(2.9 -4.84238e-14 0)
(2.9 -5.62192e-14 0)
(2.9 -2.01661e-14 0)
(2.9 -1.01274e-13 0)
(2.9 -1.49631e-14 0)
(2.9 5.03253e-14 0)
(2.9 7.0163e-14 0)
(2.9 4.76323e-14 0)
(2.9 1.32784e-13 0)
(2.9 8.65847e-14 0)
(2.9 5.2377e-14 0)
(2.9 3.33502e-14 0)
(2.9 1.38675e-14 0)
(2.9 3.87803e-14 0)
(2.9 3.16381e-14 0)
(2.9 2.97188e-14 0)
(2.9 -2.7256e-14 0)
(2.9 5.16004e-14 0)
(2.9 1.00295e-13 0)
(2.9 5.3904e-14 0)
(2.9 5.02121e-14 0)
(2.9 5.7252e-14 0)
(2.9 7.58831e-14 0)
(2.9 1.27916e-13 0)
(2.9 2.94154e-16 0)
(2.9 -6.02961e-15 0)
(2.9 3.78106e-14 0)
(2.9 1.0025e-13 0)
(2.9 4.61437e-14 0)
(2.9 5.90933e-14 0)
(2.9 2.22816e-14 0)
(2.9 1.00566e-13 0)
(2.9 2.39414e-14 0)
(2.9 -1.25119e-15 0)
(2.9 4.77611e-14 0)
(2.9 1.08066e-14 0)
(2.9 -4.8312e-14 0)
(2.9 1.36168e-14 0)
(2.9 -4.33609e-14 0)
(2.9 -3.32611e-14 0)
(2.9 -9.59527e-14 0)
(2.9 -1.23552e-14 0)
(2.9 -2.78008e-14 0)
(2.9 -1.31288e-14 0)
(2.9 1.51298e-14 0)
(2.9 -1.97777e-16 0)
(2.9 -3.85779e-14 0)
(2.9 -1.88926e-14 0)
(2.9 1.64046e-14 0)
(2.9 1.94984e-14 0)
(2.9 -9.91159e-15 0)
(2.9 2.11186e-14 0)
(2.9 6.07647e-14 0)
(2.9 -5.42795e-15 0)
(2.9 1.79181e-14 0)
(2.9 8.38955e-14 0)
(2.9 7.94322e-14 0)
(2.9 8.83537e-14 0)
(2.9 -2.11312e-14 0)
(2.9 -1.76019e-13 0)
(2.9 -7.37725e-14 0)
(2.9 -2.59216e-14 0)
(2.9 -4.93824e-14 0)
(2.9 -1.36643e-13 0)
(2.9 -5.63252e-14 0)
(2.9 -4.3666e-14 0)
(2.9 -1.39672e-14 0)
(2.9 -7.5807e-15 0)
(2.9 7.92933e-14 0)
(2.9 1.10408e-13 0)
(2.9 3.16163e-14 0)
(2.9 -2.45469e-14 0)
(2.9 -3.54995e-14 0)
(2.9 -3.58434e-14 0)
(2.9 -2.63911e-14 0)
(2.9 -2.70518e-14 0)
(2.9 -3.41142e-14 0)
(2.9 9.28808e-15 0)
(2.9 -5.83892e-14 0)
(2.9 2.39934e-14 0)
(2.9 5.20354e-14 0)
(2.9 2.96189e-14 0)
(2.9 6.115e-14 0)
(2.9 1.00614e-13 0)
(2.9 4.25603e-14 0)
(2.9 2.87012e-15 0)
(2.9 -2.98703e-14 0)
(2.9 -4.87856e-14 0)
(2.9 2.57067e-14 0)
(2.9 7.34685e-14 0)
(2.9 6.52016e-14 0)
(2.9 9.69799e-14 0)
(2.9 3.66822e-14 0)
(2.9 7.54178e-14 0)
(2.9 7.15617e-14 0)
(2.9 8.80716e-14 0)
(2.9 3.20281e-14 0)
(2.9 -4.05079e-14 0)
(2.9 2.94762e-14 0)
(2.9 8.05481e-14 0)
(2.9 8.24346e-15 0)
(2.9 3.19039e-14 0)
(2.9 7.50649e-14 0)
(2.9 -6.13886e-15 0)
(2.9 -3.8508e-14 0)
(2.9 2.98954e-14 0)
(2.9 3.82195e-14 0)
(2.9 2.77251e-14 0)
(2.9 1.06818e-14 0)
(2.9 5.5828e-14 0)
(2.9 5.26509e-14 0)
(2.9 1.44996e-13 0)
(2.9 1.05707e-13 0)
(2.9 1.44685e-13 0)
(2.9 1.24754e-13 0)
(2.9 1.60544e-13 0)
(2.9 9.48153e-14 0)
(2.9 6.24535e-14 0)
(2.9 -7.82396e-14 0)
(2.9 -1.25434e-13 0)
(2.9 -2.21923e-14 0)
(2.9 2.11653e-14 0)
(2.9 -4.2724e-14 0)
(2.9 -6.61602e-14 0)
(2.9 -1.06405e-13 0)
(2.9 -1.16044e-13 0)
(2.9 -7.95848e-14 0)
(2.9 -9.46232e-14 0)
(2.9 -1.0759e-14 0)
(2.9 -2.3056e-14 0)
(2.9 6.49617e-14 0)
(2.9 2.68893e-14 0)
(2.9 -2.92166e-14 0)
(2.9 -8.07541e-14 0)
(2.9 -2.88883e-14 0)
(2.9 -3.41797e-14 0)
(2.9 -2.68631e-14 0)
(2.9 -5.95071e-14 0)
(2.9 -1.57459e-13 0)
(2.9 -1.21954e-14 0)
(2.9 9.374e-14 0)
(2.9 2.39045e-15 0)
(2.9 5.11093e-15 0)
(2.9 2.16164e-14 0)
(2.9 -1.01295e-14 0)
(2.9 3.35708e-14 0)
(2.9 -4.26623e-14 0)
(2.9 -1.31205e-13 0)
(2.9 -1.60659e-14 0)
(2.9 6.13139e-14 0)
(2.9 9.70662e-14 0)
(2.9 8.05832e-14 0)
(2.9 7.41859e-14 0)
(2.9 8.65391e-14 0)
(2.9 4.42856e-14 0)
(2.9 7.94224e-14 0)
(2.9 6.11116e-14 0)
(2.9 -3.76865e-14 0)
(2.9 1.01024e-13 0)
(2.9 1.70397e-13 0)
(2.9 9.08949e-14 0)
(2.9 1.38802e-14 0)
(2.9 8.69436e-14 0)
(2.9 3.48423e-14 0)
(2.9 1.13354e-14 0)
(2.9 4.10803e-14 0)
(2.9 2.01102e-14 0)
(2.9 1.01669e-13 0)
(2.9 -4.33515e-15 0)
(2.9 9.81339e-14 0)
(2.9 1.38959e-13 0)
(2.9 1.75271e-13 0)
(2.9 1.09217e-13 0)
(2.9 1.49962e-13 0)
(2.9 9.44082e-14 0)
(2.9 1.73455e-13 0)
(2.9 1.71748e-13 0)
(2.9 7.46937e-14 0)
(2.9 -6.61478e-14 0)
(2.9 1.08708e-14 0)
(2.9 4.40438e-14 0)
(2.9 4.43883e-14 0)
(2.9 4.54135e-14 0)
(2.9 -2.15367e-15 0)
(2.9 -9.58134e-14 0)
(2.9 -9.66292e-14 0)
(2.9 -8.9244e-14 0)
(2.9 -5.29537e-14 0)
(2.9 -9.19335e-14 0)
(2.9 -1.95543e-14 0)
(2.9 4.61849e-14 0)
(2.9 -2.6185e-15 0)
(2.9 -6.99205e-14 0)
(2.9 -1.35547e-13 0)
(2.9 -2.39577e-14 0)
(2.9 9.99631e-15 0)
(2.9 6.28629e-14 0)
(2.9 -1.79888e-14 0)
(2.9 -9.6849e-14 0)
(2.9 -5.77348e-14 0)
(2.9 6.62826e-14 0)
(2.9 5.76549e-14 0)
(2.9 -1.99181e-14 0)
(2.9 -5.16122e-14 0)
(2.9 -6.92301e-14 0)
(2.9 -4.1087e-14 0)
(2.9 -8.72877e-14 0)
(2.9 -9.04719e-14 0)
(2.9 -3.92501e-15 0)
(2.9 5.29769e-14 0)
(2.9 8.37141e-14 0)
(2.9 -9.57459e-15 0)
(2.9 2.23494e-14 0)
(2.9 6.20167e-14 0)
(2.9 -4.52426e-14 0)
(2.9 4.28733e-14 0)
(2.9 9.38245e-14 0)
(2.9 5.923e-14 0)
(2.9 1.14154e-13 0)
(2.9 1.50289e-13 0)
(2.9 6.11699e-14 0)
(2.9 -1.63067e-14 0)
(2.9 4.33127e-14 0)
(2.9 -1.48056e-14 0)
(2.9 5.72302e-14 0)
(2.9 3.71865e-14 0)
(2.9 4.72371e-14 0)
(2.9 7.25471e-14 0)
(2.9 1.94076e-14 0)
(2.9 2.53388e-14 0)
(2.9 9.16028e-14 0)
(2.9 9.26007e-14 0)
(2.9 1.90899e-14 0)
(2.9 7.43222e-14 0)
(2.9 1.03549e-14 0)
(2.9 2.09461e-14 0)
(2.9 1.1072e-13 0)
(2.9 7.20968e-14 0)
(2.9 5.76121e-14 0)
(2.9 8.79724e-14 0)
(2.9 1.1241e-13 0)
(2.9 1.14013e-13 0)
(2.9 7.1715e-14 0)
(2.9 5.54554e-14 0)
(2.9 -4.49438e-14 0)
(2.9 -1.33548e-14 0)
(2.9 -6.26665e-14 0)
(2.9 -4.61755e-14 0)
(2.9 -9.94805e-14 0)
(2.9 -3.58338e-15 0)
(2.9 -2.92829e-14 0)
(2.9 -2.51082e-14 0)
(2.9 -1.10455e-13 0)
(2.9 -1.20797e-13 0)
(2.9 -1.71471e-15 0)
(2.9 1.01807e-13 0)
(2.9 7.95e-14 0)
(2.9 -6.917e-15 0)
(2.9 -4.92077e-14 0)
(2.9 -7.1293e-14 0)
(2.9 5.67037e-14 0)
(2.9 3.14329e-14 0)
(2.9 -3.27313e-14 0)
(2.9 -1.41609e-13 0)
(2.9 -8.21488e-14 0)
(2.9 -1.01162e-13 0)
(2.9 -1.14887e-13 0)
(2.9 -7.7561e-14 0)
(2.9 2.20297e-14 0)
(2.9 1.77094e-14 0)
(2.9 3.40024e-14 0)
(2.9 -5.18773e-14 0)
(2.9 -1.09719e-14 0)
(2.9 4.49959e-14 0)
(2.9 -6.85933e-14 0)
(2.9 1.57796e-14 0)
(2.9 1.43004e-13 0)
(2.9 7.09569e-14 0)
(2.9 7.11169e-14 0)
(2.9 1.49973e-14 0)
(2.9 5.15951e-14 0)
(2.9 -1.23461e-14 0)
(2.9 1.72883e-14 0)
(2.9 -2.54145e-14 0)
(2.9 2.53981e-14 0)
(2.9 2.88972e-14 0)
(2.9 7.50333e-14 0)
(2.9 2.11803e-14 0)
(2.9 2.09134e-14 0)
(2.9 -3.03238e-14 0)
(2.9 -1.39776e-14 0)
(2.9 -1.55972e-14 0)
(2.9 -6.29467e-14 0)
(2.9 -2.87168e-14 0)
(2.9 -7.2756e-14 0)
(2.9 -7.53131e-14 0)
(2.9 -3.197e-14 0)
(2.9 -6.93119e-14 0)
(2.9 2.02932e-15 0)
(2.9 9.13187e-14 0)
(2.9 6.57006e-14 0)
(2.9 6.29691e-14 0)
(2.9 2.47091e-14 0)
(2.9 6.82886e-14 0)
(2.9 8.31637e-14 0)
(2.9 7.14071e-14 0)
(2.9 2.80296e-15 0)
(2.9 1.33686e-14 0)
(2.9 -8.4674e-14 0)
(2.9 -4.7904e-14 0)
(2.9 -8.88845e-14 0)
(2.9 -3.64668e-14 0)
(2.9 -1.17865e-13 0)
(2.9 -1.16333e-13 0)
(2.9 -5.44739e-15 0)
(2.9 7.29634e-14 0)
(2.9 3.33822e-14 0)
(2.9 -7.0213e-14 0)
(2.9 -7.29929e-14 0)
(2.9 -4.10832e-14 0)
(2.9 4.84414e-14 0)
(2.9 -4.09687e-14 0)
(2.9 -8.72074e-14 0)
(2.9 -2.0324e-13 0)
(2.9 -8.36892e-14 0)
(2.9 -6.39716e-14 0)
(2.9 -8.48044e-14 0)
(2.9 -6.55474e-14 0)
(2.9 6.16918e-14 0)
(2.9 -4.211e-14 0)
(2.9 -7.53922e-14 0)
(2.9 -5.93312e-14 0)
(2.9 -2.21646e-14 0)
(2.9 6.63655e-15 0)
(2.9 -9.24417e-15 0)
(2.9 8.41737e-17 0)
(2.9 7.98667e-14 0)
(2.9 -2.82248e-14 0)
(2.9 -3.24411e-14 0)
(2.9 -6.96509e-14 0)
(2.9 2.25752e-14 0)
(2.9 1.09028e-13 0)
(2.9 8.46654e-14 0)
(2.9 6.66501e-15 0)
(2.9 -3.19032e-14 0)
(2.9 -3.73383e-14 0)
(2.9 5.72635e-14 0)
(2.9 -2.77586e-16 0)
(2.9 7.90295e-14 0)
(2.9 -7.66898e-16 0)
(2.9 4.93089e-15 0)
(2.9 -3.06823e-14 0)
(2.9 -1.36753e-13 0)
(2.9 -7.55455e-14 0)
(2.9 -8.23328e-14 0)
(2.9 -1.18685e-13 0)
(2.9 -8.48342e-14 0)
(2.9 -1.96966e-13 0)
(2.9 -1.10552e-13 0)
(2.9 4.42836e-14 0)
(2.9 4.27298e-14 0)
(2.9 3.62295e-14 0)
(2.9 -1.7492e-14 0)
(2.9 8.49881e-14 0)
(2.9 1.00368e-13 0)
(2.9 3.80848e-14 0)
(2.9 5.85433e-14 0)
(2.9 -4.50035e-14 0)
(2.9 -5.40032e-14 0)
(2.9 -9.04507e-14 0)
(2.9 -7.48612e-14 0)
(2.9 -2.43941e-14 0)
(2.9 -5.004e-14 0)
(2.9 -1.24704e-13 0)
(2.9 -5.79536e-14 0)
(2.9 -5.52829e-14 0)
(2.9 -3.91659e-14 0)
(2.9 -3.24495e-14 0)
(2.9 -7.16411e-14 0)
(2.9 -4.49061e-14 0)
(2.9 -5.44884e-14 0)
(2.9 -8.20303e-15 0)
(2.9 -6.6623e-14 0)
(2.9 -1.83379e-13 0)
(2.9 -1.65152e-13 0)
(2.9 -9.65068e-14 0)
(2.9 -6.32826e-14 0)
(2.9 -5.7846e-15 0)
(2.9 5.02497e-15 0)
(2.9 -1.05872e-13 0)
(2.9 -7.59781e-14 0)
(2.9 -4.98629e-14 0)
(2.9 -3.70265e-14 0)
(2.9 -1.16618e-13 0)
(2.9 -6.61201e-14 0)
(2.9 -8.05723e-14 0)
(2.9 -5.48932e-14 0)
(2.9 -8.93118e-14 0)
(2.9 -1.08344e-13 0)
(2.9 -6.49897e-14 0)
(2.9 3.84074e-15 0)
(2.9 9.81761e-14 0)
(2.9 4.2336e-14 0)
(2.9 2.08647e-14 0)