/*--------------------------------*- C++ -*----------------------------------*\
| =========                 |                                                 |
| \\      /  F ield         | OpenFOAM: The Open Source CFD Toolbox           |
|  \\    /   O peration     | Version:  2412                                  |
|   \\  /    A nd           | Website:  www.openfoam.com                      |
|    \\/     M anipulation  |                                                 |
\*---------------------------------------------------------------------------*/
FoamFile
{
    version     2.0;
    format      ascii;
    arch        "LSB;label=32;scalar=64";
    class       volVectorField;
    location    "0.0334069";
    object      U;
}
// * * * * * * * * * * * * * * * * * * * * * * * * * * * * * * * * * * * * * //

dimensions      [0 1 -1 0 0 0 0];

internalField   nonuniform List<vector> 
100
(
(1.99334 0 0)
(6.08689 0 0)
(10.0725 0 0)
(14.1975 0 0)
(18.113 0 0)
(22.3399 0 0)
(26.1346 0 0)
(30.5057 0 0)
(34.2065 0 0)
(38.6042 0 0)
(42.3353 0 0)
(46.6103 0 0)
(50.6076 0 0)
(54.6477 0 0)
(58.9077 0 0)
(62.7454 0 0)
(67.1083 0 0)
(70.8836 0 0)
(75.2502 0 0)
(79.0761 0 0)
(83.3851 0 0)
(87.2816 0 0)
(91.4901 0 0)
(95.4349 0 0)
(99.5592 0 0)
(103.559 0 0)
(107.665 0 0)
(111.718 0 0)
(115.814 0 0)
(119.874 0 0)
(123.942 0 0)
(127.992 0 0)
(132.052 0 0)
(136.099 0 0)
(140.161 0 0)
(144.163 0 0)
(148.156 0 0)
(152.051 0 0)
(155.911 0 0)
(159.831 0 0)
(163.558 0 0)
(167.187 0 0)
(170.587 0 0)
(173.432 0 0)
(175.85 0 0)
(178.376 0 0)
(173.028 0 0)
(16.5959 0 0)
(-105.108 0 0)
(-111.508 0 0)
(-96.5598 0 0)
(-88.3146 0 0)
(-84.279 0 0)
(-81.3681 0 0)
(-79.3659 0 0)
(-79.4034 0 0)
(-79.2389 0 0)
(-78.3413 0 0)
(-74.8518 0 0)
(-70.0881 0 0)
(-65.9565 0 0)
(-63.1603 0 0)
(-63.1546 0 0)
(-59.2097 0 0)
(-59.6729 0 0)
(-57.5905 0 0)
(-54.3003 0 0)
(-51.2993 0 0)
(-42.396 0 0)
(-40.7871 0 0)
(-32.9116 0 0)
(-34.9915 0 0)
(-35.611 0 0)
(-32.892 0 0)
(-33.3694 0 0)
(-28.5689 0 0)
(-29.1776 0 0)
(-18.923 0 0)
(-6.9834 0 0)
(4.21075 0 0)
(8.30321 0 0)
(9.87 0 0)
(9.21792 0 0)
(4.05408 0 0)
(1.29305 0 0)
(-1.29926 0 0)
(-0.845965 0 0)
(-0.243122 0 0)
(1.98167 0 0)
(1.22247 0 0)
(-2.8222 0 0)
(-5.80683 0 0)
(-5.93758 0 0)
(-3.69868 0 0)
(-0.569833 0 0)
(2.65629 0 0)
(4.9285 0 0)
(5.44989 0 0)
(4.74884 0 0)
(2.55219 0 0)
)
;

boundaryField
{
    sides
    {
        type            fixedValue;
        value           uniform (0 0 0);
    }
    empty
    {
        type            empty;
    }
}


// ************************************************************************* //
