/*--------------------------------*- C++ -*----------------------------------*\
| =========                 |                                                 |
| \\      /  F ield         | OpenFOAM: The Open Source CFD Toolbox           |
|  \\    /   O peration     | Version:  2412                                  |
|   \\  /    A nd           | Website:  www.openfoam.com                      |
|    \\/     M anipulation  |                                                 |
\*---------------------------------------------------------------------------*/
FoamFile
{
    version     2.0;
    format      ascii;
    arch        "LSB;label=32;scalar=64";
    class       volVectorField;
    location    "0.0458313";
    object      U;
}
// * * * * * * * * * * * * * * * * * * * * * * * * * * * * * * * * * * * * * //

dimensions      [0 1 -1 0 0 0 0];

internalField   nonuniform List<vector> 
100
(
(-111.33 0 0)
(-247.531 0 0)
(-251.613 0 0)
(-247.446 0 0)
(-248.205 0 0)
(-255.12 0 0)
(-255.165 0 0)
(-252.963 0 0)
(-249.842 0 0)
(-235.298 0 0)
(-217.728 0 0)
(-211.753 0 0)
(-209.917 0 0)
(-209.029 0 0)
(-213.501 0 0)
(-225.659 0 0)
(-228.575 0 0)
(-227.368 0 0)
(-224.899 0 0)
(-218.917 0 0)
(-210.26 0 0)
(-206.951 0 0)
(-205.558 0 0)
(-206.996 0 0)
(-209.4 0 0)
(-208.678 0 0)
(-206.152 0 0)
(-199.036 0 0)
(-190.855 0 0)
(-187.701 0 0)
(-187.048 0 0)
(-190.87 0 0)
(-193.585 0 0)
(-192.554 0 0)
(-189.103 0 0)
(-179.976 0 0)
(-172.712 0 0)
(-170.112 0 0)
(-170.806 0 0)
(-179.67 0 0)
(-185.582 0 0)
(-184.963 0 0)
(-181.874 0 0)
(-171.729 0 0)
(-157.038 0 0)
(-150.417 0 0)
(-148.147 0 0)
(-147.929 0 0)
(-152.001 0 0)
(-157.835 0 0)
(-158.833 0 0)
(-157.574 0 0)
(-155.052 0 0)
(-150.962 0 0)
(-147.676 0 0)
(-145.817 0 0)
(-143.188 0 0)
(-138.951 0 0)
(-134.954 0 0)
(-133.263 0 0)
(-132.839 0 0)
(-133.624 0 0)
(-133.294 0 0)
(-131.345 0 0)
(-126.536 0 0)
(-120.778 0 0)
(-118.008 0 0)
(-118.488 0 0)
(-128.566 0 0)
(-138.336 0 0)
(-139.921 0 0)
(-137.203 0 0)
(-132.286 0 0)
(-115.924 0 0)
(-97.3358 0 0)
(-85.8183 0 0)
(-78.1912 0 0)
(-76.3094 0 0)
(-71.862 0 0)
(-68.9318 0 0)
(-66.2667 0 0)
(-64.6775 0 0)
(-64.2982 0 0)
(-62.6775 0 0)
(-61.5635 0 0)
(-57.2799 0 0)
(-52.9865 0 0)
(-46.995 0 0)
(-41.4843 0 0)
(-36.3754 0 0)
(-32.8703 0 0)
(-29.857 0 0)
(-27.4173 0 0)
(-25.6706 0 0)
(-22.9795 0 0)
(-19.3348 0 0)
(-14.7985 0 0)
(-10.6737 0 0)
(-5.9374 0 0)
(-2.15425 0 0)
)
;

boundaryField
{
    sides
    {
        type            fixedValue;
        value           uniform (0 0 0);
    }
    empty
    {
        type            empty;
    }
}


// ************************************************************************* //
