/*--------------------------------*- C++ -*----------------------------------*\
| =========                 |                                                 |
| \\      /  F ield         | OpenFOAM: The Open Source CFD Toolbox           |
|  \\    /   O peration     | Version:  2412                                  |
|   \\  /    A nd           | Website:  www.openfoam.com                      |
|    \\/     M anipulation  |                                                 |
\*---------------------------------------------------------------------------*/
FoamFile
{
    version     2.0;
    format      ascii;
    arch        "LSB;label=32;scalar=64";
    class       volScalarField;
    location    "0.0482829";
    object      p;
}
// * * * * * * * * * * * * * * * * * * * * * * * * * * * * * * * * * * * * * //

dimensions      [1 -1 -2 0 0 0 0];

internalField   nonuniform List<scalar> 
100
(
79207.3
85983
103425
109217
107102
55617.3
38082.9
36752.1
37152.9
37638.5
38422.6
39846.7
40028.3
40699.4
39890.2
39277.7
38827.2
39638.2
40197.8
42188.8
42442.4
43150.1
42312.6
41350.2
40915
41507
42560.3
45638.4
46899.8
47494.9
47501.2
45579.1
43379.9
43102.7
43453.2
43950.6
45450.5
47862.3
48912.8
49395.6
49668
49529.2
49558.9
49874.8
50149.1
50040.4
49929.9
50276.9
50803.4
51794.1
52827.2
53408.8
53699.8
53058.4
52745.3
53187.6
54491.9
58811.3
61689.1
62537.2
63064.3
62418.5
58870.3
55034.6
53607.9
53261.9
53428.3
53453.7
53564.1
53732
54078.9
54871.1
55123.1
56352.8
56337
57411.7
56337.2
56433.1
55518.5
54956
55518
54897
56299.7
55579.3
56962.5
56435.6
56861.3
56817.2
56493
56571.7
56217.4
56534.1
56033.8
56489.6
55949.1
56498
56059.4
56425.1
56213.3
56294.5
)
;

boundaryField
{
    sides
    {
        type            zeroGradient;
    }
    empty
    {
        type            empty;
    }
}


// ************************************************************************* //
