/*--------------------------------*- C++ -*----------------------------------*\
| =========                 |                                                 |
| \\      /  F ield         | OpenFOAM: The Open Source CFD Toolbox           |
|  \\    /   O peration     | Version:  2412                                  |
|   \\  /    A nd           | Website:  www.openfoam.com                      |
|    \\/     M anipulation  |                                                 |
\*---------------------------------------------------------------------------*/
FoamFile
{
    version     2.0;
    format      ascii;
    arch        "LSB;label=32;scalar=64";
    class       volScalarField;
    location    "0.0482829";
    object      rho;
}
// * * * * * * * * * * * * * * * * * * * * * * * * * * * * * * * * * * * * * //

dimensions      [1 -3 0 0 0 0 0];

internalField   nonuniform List<scalar> 
100
(
0.858288
0.994093
1.0663
1.13222
1.11189
0.704263
0.507155
0.496938
0.501301
0.505953
0.516281
0.528836
0.533486
0.536619
0.531423
0.520172
0.519866
0.52329
0.533648
0.549448
0.555846
0.558958
0.553581
0.540328
0.539405
0.543332
0.556665
0.587306
0.600628
0.605622
0.606523
0.585858
0.564372
0.562306
0.566576
0.571615
0.587794
0.612574
0.623072
0.628468
0.631852
0.630722
0.631461
0.634856
0.637463
0.636037
0.634845
0.63848
0.643769
0.654352
0.664871
0.671277
0.674014
0.667351
0.664538
0.668673
0.681425
0.724263
0.750831
0.758841
0.764177
0.758096
0.722717
0.685638
0.671317
0.668841
0.669621
0.670479
0.670361
0.671749
0.675193
0.680898
0.686574
0.693726
0.700923
0.704783
0.704438
0.701413
0.698911
0.695227
0.693903
0.692149
0.688668
0.684327
0.673688
0.655142
0.630993
0.607033
0.590284
0.580867
0.576264
0.574241
0.573376
0.573307
0.574287
0.575329
0.576759
0.577503
0.578152
0.578351
)
;

boundaryField
{
    sides
    {
        type            calculated;
        value           nonuniform List<scalar> 2(0.578351 0.858288);
    }
    empty
    {
        type            empty;
    }
}


// ************************************************************************* //
