/*--------------------------------*- C++ -*----------------------------------*\
| =========                 |                                                 |
| \\      /  F ield         | OpenFOAM: The Open Source CFD Toolbox           |
|  \\    /   O peration     | Version:  2412                                  |
|   \\  /    A nd           | Website:  www.openfoam.com                      |
|    \\/     M anipulation  |                                                 |
\*---------------------------------------------------------------------------*/
FoamFile
{
    version     2.0;
    format      ascii;
    arch        "LSB;label=32;scalar=64";
    class       volScalarField;
    location    "0.0193892";
    object      rho;
}
// * * * * * * * * * * * * * * * * * * * * * * * * * * * * * * * * * * * * * //

dimensions      [1 -3 0 0 0 0 0];

internalField   nonuniform List<scalar> 
100
(
0.699243
0.699267
0.699625
0.69967
0.699259
0.698507
0.697327
0.695962
0.694861
0.694323
0.694632
0.696707
0.701336
0.708079
0.715074
0.72029
0.722838
0.720595
0.708794
0.69501
0.683006
0.670734
0.661703
0.653289
0.645277
0.636778
0.627723
0.619216
0.610247
0.602266
0.593549
0.585485
0.576986
0.569178
0.560988
0.553004
0.544947
0.537346
0.529854
0.522316
0.514575
0.506988
0.500178
0.494214
0.486852
0.479182
0.473888
0.468886
0.462959
0.459729
0.459354
0.460163
0.461576
0.461431
0.457189
0.456048
0.466334
0.473366
0.459829
0.440649
0.447396
0.484902
0.493245
0.449581
0.419513
0.441626
0.506891
0.511593
0.44411
0.406713
0.432766
0.509987
0.52166
0.456547
0.405531
0.41896
0.493578
0.523579
0.494982
0.612248
0.944232
1.05343
1.0186
1.03795
1.04272
0.997996
1.02976
1.09594
1.06737
0.995217
0.930084
0.894418
0.882237
0.875894
0.871125
0.871945
0.886568
0.895152
0.911087
0.906103
)
;

boundaryField
{
    sides
    {
        type            calculated;
        value           nonuniform List<scalar> 2(0.906103 0.699243);
    }
    empty
    {
        type            empty;
    }
}


// ************************************************************************* //
