/*--------------------------------*- C++ -*----------------------------------*\
| =========                 |                                                 |
| \\      /  F ield         | OpenFOAM: The Open Source CFD Toolbox           |
|  \\    /   O peration     | Version:  2412                                  |
|   \\  /    A nd           | Website:  www.openfoam.com                      |
|    \\/     M anipulation  |                                                 |
\*---------------------------------------------------------------------------*/
FoamFile
{
    version     2.0;
    format      ascii;
    arch        "LSB;label=32;scalar=64";
    class       volScalarField;
    location    "0.0193892";
    object      rhoY_Y_N2;
}
// * * * * * * * * * * * * * * * * * * * * * * * * * * * * * * * * * * * * * //

dimensions      [1 -3 0 0 0 0 0];

internalField   nonuniform List<scalar> 
100
(
0.699243
0.699267
0.699625
0.69967
0.699259
0.698507
0.697327
0.695962
0.694861
0.694323
0.694632
0.696707
0.701336
0.708079
0.715074
0.72029
0.722838
0.720595
0.708794
0.69501
0.683006
0.670734
0.661703
0.653289
0.645277
0.636778
0.627723
0.619216
0.610247
0.602266
0.593549
0.585485
0.576986
0.569178
0.560988
0.553004
0.544947
0.537346
0.529854
0.522316
0.514575
0.506988
0.500178
0.494214
0.486852
0.479182
0.473888
0.468886
0.462959
0.719815
0.515844
0.510711
0.503915
0.498581
0.491014
0.487224
0.495289
0.500774
0.486021
0.465693
0.471649
0.508235
0.515947
0.471704
0.441029
0.462474
0.527135
0.531428
0.463642
0.425762
0.451373
0.528325
0.539787
0.47442
0.423144
0.436271
0.510589
0.540311
0.511465
0.628528
0.960306
1.06932
1.03433
1.05356
1.05823
1.01377
1.04387
1.16234
0.93879
0.536364
0.222265
0.0695433
0.0167086
0.00307189
0.000438948
4.90121e-05
4.02167e-06
1.90403e-07
3.29678e-09
-9.05424e-11
)
;

boundaryField
{
    sides
    {
        type            calculated;
        value           nonuniform List<scalar> 2(0 1.12308);
    }
    empty
    {
        type            empty;
    }
}


// ************************************************************************* //
