/*--------------------------------*- C++ -*----------------------------------*\
| =========                 |                                                 |
| \\      /  F ield         | OpenFOAM: The Open Source CFD Toolbox           |
|  \\    /   O peration     | Version:  2412                                  |
|   \\  /    A nd           | Website:  www.openfoam.com                      |
|    \\/     M anipulation  |                                                 |
\*---------------------------------------------------------------------------*/
FoamFile
{
    version     2.0;
    format      ascii;
    arch        "LSB;label=32;scalar=64";
    class       surfaceScalarField;
    location    "0.0027475";
    object      phiRhoY_Y_O2;
}
// * * * * * * * * * * * * * * * * * * * * * * * * * * * * * * * * * * * * * //

dimensions      [1 0 -1 0 0 0 0];

internalField   nonuniform List<scalar> 
99
(
0
0
0
0
0
0
0
0
0
0
0
0
0
0
0
0
0
0
0
0
0
0
0
0
0
0
0
0
0
0
0
0
0
0
0
0
0
0
0
0
0
0
0
0
0
0
0
0
0
0
0
0
0
0
62.4571
194.039
295.016
360.069
399.905
432.15
486.423
490.295
224.5
2.64585
0.000446711
2.07976e-08
2.10321e-12
1.42109e-14
9.9476e-14
1.27898e-13
-1.42109e-14
-9.9476e-14
-2.84217e-14
5.68434e-14
7.10543e-14
1.42109e-14
-8.52651e-14
0
-2.84217e-14
4.26326e-14
-5.68434e-14
-1.42109e-13
0
9.9476e-14
5.68434e-14
-4.26326e-14
-1.7053e-13
-1.27898e-13
-4.26326e-14
-5.68434e-14
-1.56319e-13
-1.42109e-14
4.26326e-14
1.42109e-14
1.42109e-14
-8.52651e-14
-1.42109e-14
4.26326e-14
-5.68434e-14
)
;

boundaryField
{
    sides
    {
        type            calculated;
        value           uniform 0;
    }
    empty
    {
        type            empty;
    }
}


// ************************************************************************* //
