/*--------------------------------*- C++ -*----------------------------------*\
| =========                 |                                                 |
| \\      /  F ield         | OpenFOAM: The Open Source CFD Toolbox           |
|  \\    /   O peration     | Version:  2412                                  |
|   \\  /    A nd           | Website:  www.openfoam.com                      |
|    \\/     M anipulation  |                                                 |
\*---------------------------------------------------------------------------*/
FoamFile
{
    version     2.0;
    format      ascii;
    arch        "LSB;label=32;scalar=64";
    class       volScalarField;
    location    "0.0119372";
    object      p;
}
// * * * * * * * * * * * * * * * * * * * * * * * * * * * * * * * * * * * * * //

dimensions      [1 -1 -2 0 0 0 0];

internalField   nonuniform List<scalar> 
100
(
100000
100000
100000
100000
100000
100000
100000
100000
99999.9
99987.2
99630
97444.2
93182.2
88951.2
85649.5
83012.9
80700.7
78531.6
76433.5
74384.7
72380.5
70421.4
68503.3
66634.8
64790.2
63028.7
61216.5
59643.3
57742.8
56556.2
54340.2
53716.1
51135.6
50846.1
48393.6
47916.4
45874.3
45160.1
43459.9
42483.4
41090.9
40027
38794.9
37686.7
36654.9
35505.7
34520.4
33774.4
32994.6
32197.4
31412.4
31192.3
31828.7
32384.1
32110
31118.7
31074.5
32312.7
32780.6
32125.7
30921.1
31051.4
32272.3
32686.8
32177
30952.1
31155.7
31891.5
32624.6
32504
31623.8
31149.5
31469.4
32128.5
32725.9
32281.8
32120.8
31700.8
31324.6
31651.9
31972.1
32265.4
32064.8
31757.4
32034.5
32273.6
32373.2
32111.7
31602.8
31529.5
31519.9
31696.3
32025.1
32343.9
31889.7
34352.8
65830.5
103815
87520.3
88916.5
)
;

boundaryField
{
    sides
    {
        type            zeroGradient;
    }
    empty
    {
        type            empty;
    }
}


// ************************************************************************* //
