/*--------------------------------*- C++ -*----------------------------------*\
| =========                 |                                                 |
| \\      /  F ield         | OpenFOAM: The Open Source CFD Toolbox           |
|  \\    /   O peration     | Version:  2412                                  |
|   \\  /    A nd           | Website:  www.openfoam.com                      |
|    \\/     M anipulation  |                                                 |
\*---------------------------------------------------------------------------*/
FoamFile
{
    version     2.0;
    format      ascii;
    arch        "LSB;label=32;scalar=64";
    class       volVectorField;
    location    "0.0187559";
    object      U;
}
// * * * * * * * * * * * * * * * * * * * * * * * * * * * * * * * * * * * * * //

dimensions      [0 1 -1 0 0 0 0];

internalField   nonuniform List<vector> 
100
(
(4.13243 0 0)
(12.4379 0 0)
(20.5564 0 0)
(28.6191 0 0)
(36.5657 0 0)
(44.4746 0 0)
(52.7273 0 0)
(61.3718 0 0)
(70.7405 0 0)
(81.3385 0 0)
(93.1504 0 0)
(105.335 0 0)
(116.696 0 0)
(126.356 0 0)
(134.317 0 0)
(139.34 0 0)
(142.447 0 0)
(145.752 0 0)
(149.184 0 0)
(153.855 0 0)
(158.26 0 0)
(163.388 0 0)
(167.62 0 0)
(172.27 0 0)
(176.7 0 0)
(181.029 0 0)
(185.7 0 0)
(189.881 0 0)
(194.636 0 0)
(198.753 0 0)
(203.517 0 0)
(207.747 0 0)
(212.454 0 0)
(216.759 0 0)
(221.415 0 0)
(225.858 0 0)
(230.454 0 0)
(234.907 0 0)
(239.438 0 0)
(243.952 0 0)
(248.487 0 0)
(252.972 0 0)
(257.322 0 0)
(261.599 0 0)
(266.137 0 0)
(270.414 0 0)
(274.008 0 0)
(278.024 0 0)
(281.518 0 0)
(283.386 0 0)
(284.3 0 0)
(284.004 0 0)
(282.914 0 0)
(283.452 0 0)
(284.441 0 0)
(283.341 0 0)
(280.621 0 0)
(280.728 0 0)
(286.663 0 0)
(288.485 0 0)
(280.55 0 0)
(276.459 0 0)
(280.534 0 0)
(290.632 0 0)
(291.73 0 0)
(276.534 0 0)
(273.213 0 0)
(279.792 0 0)
(291.797 0 0)
(291.68 0 0)
(276.581 0 0)
(273.419 0 0)
(277.846 0 0)
(291.508 0 0)
(290.973 0 0)
(281.221 0 0)
(272.838 0 0)
(273.972 0 0)
(287.682 0 0)
(292.526 0 0)
(228.105 0 0)
(58.9514 0 0)
(2.11988 0 0)
(26.9036 0 0)
(12.7783 0 0)
(4.84181 0 0)
(13.6919 0 0)
(18.7936 0 0)
(11.9358 0 0)
(21.42 0 0)
(21.0547 0 0)
(13.4435 0 0)
(3.96791 0 0)
(3.86617 0 0)
(4.37143 0 0)
(5.87734 0 0)
(3.44528 0 0)
(-2.36677 0 0)
(-4.21501 0 0)
(-2.89755 0 0)
)
;

boundaryField
{
    sides
    {
        type            fixedValue;
        value           uniform (0 0 0);
    }
    empty
    {
        type            empty;
    }
}


// ************************************************************************* //
