/*--------------------------------*- C++ -*----------------------------------*\
| =========                 |                                                 |
| \\      /  F ield         | OpenFOAM: The Open Source CFD Toolbox           |
|  \\    /   O peration     | Version:  2412                                  |
|   \\  /    A nd           | Website:  www.openfoam.com                      |
|    \\/     M anipulation  |                                                 |
\*---------------------------------------------------------------------------*/
FoamFile
{
    version     2.0;
    format      ascii;
    arch        "LSB;label=32;scalar=64";
    class       volScalarField;
    location    "0.0197759";
    object      rhoY_Y_N2;
}
// * * * * * * * * * * * * * * * * * * * * * * * * * * * * * * * * * * * * * //

dimensions      [1 -3 0 0 0 0 0];

internalField   nonuniform List<scalar> 
100
(
0.678438
0.678368
0.678675
0.678696
0.678413
0.678016
0.67735
0.676332
0.674957
0.673565
0.672606
0.672242
0.672804
0.67544
0.68046
0.686865
0.693364
0.69894
0.70186
0.696051
0.68389
0.670481
0.65883
0.647632
0.638407
0.631315
0.623732
0.615797
0.606857
0.598822
0.590277
0.582412
0.574087
0.566391
0.55849
0.550766
0.542839
0.53524
0.527888
0.520722
0.513393
0.505843
0.49855
0.49266
0.486723
0.479183
0.472418
0.468313
0.463442
0.719632
0.515238
0.510077
0.503602
0.499981
0.495121
0.486544
0.484673
0.496911
0.501431
0.480471
0.461709
0.473658
0.514018
0.514886
0.463056
0.437504
0.470223
0.534024
0.52776
0.454203
0.423226
0.458733
0.53521
0.536526
0.465444
0.420982
0.438358
0.516217
0.655166
0.964967
1.04539
1.03444
0.999027
1.04028
1.05736
1.02317
1.05851
1.17439
0.958295
0.547593
0.228779
0.0751266
0.0192178
0.00359561
0.000456801
3.84427e-05
2.24498e-06
6.984e-08
-1.09632e-10
-1.08647e-10
)
;

boundaryField
{
    sides
    {
        type            calculated;
        value           nonuniform List<scalar> 2(0 1.12308);
    }
    empty
    {
        type            empty;
    }
}


// ************************************************************************* //
