/*--------------------------------*- C++ -*----------------------------------*\
| =========                 |                                                 |
| \\      /  F ield         | OpenFOAM: The Open Source CFD Toolbox           |
|  \\    /   O peration     | Version:  2412                                  |
|   \\  /    A nd           | Website:  www.openfoam.com                      |
|    \\/     M anipulation  |                                                 |
\*---------------------------------------------------------------------------*/
FoamFile
{
    version     2.0;
    format      ascii;
    arch        "LSB;label=32;scalar=64";
    class       volScalarField;
    location    "0.0220771";
    object      rhoY_Y_N2;
}
// * * * * * * * * * * * * * * * * * * * * * * * * * * * * * * * * * * * * * //

dimensions      [1 -3 0 0 0 0 0];

internalField   nonuniform List<scalar> 
100
(
0.574359
0.574388
0.574537
0.574566
0.574467
0.574205
0.573832
0.573458
0.573013
0.572548
0.571992
0.571546
0.571091
0.570702
0.570145
0.5693
0.568576
0.566908
0.56565
0.563932
0.562986
0.562321
0.562032
0.563046
0.564233
0.566627
0.569775
0.578869
0.591825
0.592696
0.584073
0.575198
0.565012
0.553847
0.544355
0.536336
0.528734
0.522394
0.518746
0.513194
0.506093
0.499105
0.492292
0.487121
0.482355
0.475516
0.469278
0.46597
0.462661
0.719566
0.515526
0.510365
0.502663
0.49838
0.495994
0.490883
0.485733
0.489271
0.496053
0.489427
0.470125
0.469305
0.499243
0.512349
0.478455
0.443988
0.459197
0.523194
0.534201
0.467254
0.424291
0.450459
0.529571
0.589646
0.855889
1.0345
1.04168
1.01312
1.0589
1.05472
1.03588
1.04941
1.03138
1.04372
1.08177
1.0977
1.13284
1.22916
1.01848
0.587349
0.231418
0.0670004
0.0150335
0.00265099
0.000367299
3.81182e-05
2.64627e-06
9.15012e-08
1.14535e-10
-1.2604e-10
)
;

boundaryField
{
    sides
    {
        type            calculated;
        value           nonuniform List<scalar> 2(0 1.12308);
    }
    empty
    {
        type            empty;
    }
}


// ************************************************************************* //
