/*--------------------------------*- C++ -*----------------------------------*\
| =========                 |                                                 |
| \\      /  F ield         | OpenFOAM: The Open Source CFD Toolbox           |
|  \\    /   O peration     | Version:  2412                                  |
|   \\  /    A nd           | Website:  www.openfoam.com                      |
|    \\/     M anipulation  |                                                 |
\*---------------------------------------------------------------------------*/
FoamFile
{
    version     2.0;
    format      ascii;
    arch        "LSB;label=32;scalar=64";
    class       surfaceScalarField;
    location    "0.00410695";
    object      phiRhoY_Y_O2;
}
// * * * * * * * * * * * * * * * * * * * * * * * * * * * * * * * * * * * * * //

dimensions      [1 0 -1 0 0 0 0];

internalField   nonuniform List<scalar> 
99
(
0
0
0
0
0
0
0
0
0
0
0
0
0
0
0
0
0
0
0
0
0
0
0
0
0
0
0
0
0
0
0
0
0
0
0
0
0
0
0
0
0
0
0
0
0
0
0
0
0
0
0
0
0
0
0
0
0
32.7679
131.806
247.855
340.441
398.034
413.994
402.439
404.762
406.356
431.242
473.162
459.892
97.5613
0.277244
2.17575e-05
1.37881e-09
-1.42109e-14
-2.84217e-14
1.42109e-14
0
-4.26326e-14
-9.9476e-14
-7.10543e-14
-5.68434e-14
4.26326e-14
-1.42109e-14
-1.13687e-13
-1.13687e-13
-9.9476e-14
-5.68434e-14
-1.13687e-13
-1.42109e-13
-7.10543e-14
-1.42109e-14
-1.13687e-13
-1.42109e-13
-2.27374e-13
-1.84741e-13
-7.10543e-14
-5.68434e-14
-4.26326e-14
-5.68434e-14
)
;

boundaryField
{
    sides
    {
        type            calculated;
        value           uniform 0;
    }
    empty
    {
        type            empty;
    }
}


// ************************************************************************* //
