/*--------------------------------*- C++ -*----------------------------------*\
| =========                 |                                                 |
| \\      /  F ield         | OpenFOAM: The Open Source CFD Toolbox           |
|  \\    /   O peration     | Version:  2412                                  |
|   \\  /    A nd           | Website:  www.openfoam.com                      |
|    \\/     M anipulation  |                                                 |
\*---------------------------------------------------------------------------*/
FoamFile
{
    version     2.0;
    format      ascii;
    arch        "LSB;label=32;scalar=64";
    class       volScalarField;
    location    "0.0264868";
    object      rho;
}
// * * * * * * * * * * * * * * * * * * * * * * * * * * * * * * * * * * * * * //

dimensions      [1 -3 0 0 0 0 0];

internalField   nonuniform List<scalar> 
100
(
0.44001
0.440046
0.440139
0.440218
0.440269
0.440295
0.440197
0.440113
0.439881
0.43977
0.43956
0.439372
0.43926
0.438822
0.438791
0.438236
0.438113
0.437695
0.437362
0.43707
0.43653
0.436264
0.435591
0.43525
0.434545
0.434147
0.433457
0.43293
0.432187
0.431524
0.430777
0.430128
0.429478
0.428942
0.428381
0.427776
0.427033
0.425995
0.424586
0.423139
0.421785
0.419998
0.418102
0.418173
0.420947
0.422195
0.420596
0.419339
0.418405
0.419616
0.437418
0.46539
0.470693
0.470549
0.471036
0.471571
0.46949
0.463734
0.462297
0.463154
0.454976
0.448312
0.459822
0.472435
0.519715
0.866161
1.05081
1.0324
1.04445
1.06919
1.08498
1.09923
1.08101
1.09246
1.09502
1.08561
1.06762
1.03542
1.03625
1.039
1.05862
1.09428
1.09347
1.08383
1.06351
1.04371
1.06254
1.09636
1.12175
1.0785
0.998015
0.921127
0.88295
0.870739
0.874181
0.878809
0.889517
0.893048
0.893012
0.890695
)
;

boundaryField
{
    sides
    {
        type            calculated;
        value           nonuniform List<scalar> 2(0.890695 0.44001);
    }
    empty
    {
        type            empty;
    }
}


// ************************************************************************* //
