/*--------------------------------*- C++ -*----------------------------------*\
| =========                 |                                                 |
| \\      /  F ield         | OpenFOAM: The Open Source CFD Toolbox           |
|  \\    /   O peration     | Version:  2412                                  |
|   \\  /    A nd           | Website:  www.openfoam.com                      |
|    \\/     M anipulation  |                                                 |
\*---------------------------------------------------------------------------*/
FoamFile
{
    version     2.0;
    format      ascii;
    arch        "LSB;label=32;scalar=64";
    class       volScalarField;
    location    "0.0393517";
    object      rho;
}
// * * * * * * * * * * * * * * * * * * * * * * * * * * * * * * * * * * * * * //

dimensions      [1 -3 0 0 0 0 0];

internalField   nonuniform List<scalar> 
100
(
0.256323
0.256406
0.256471
0.256498
0.256447
0.2563
0.256099
0.255877
0.255633
0.25539
0.255214
0.255148
0.255168
0.255242
0.255331
0.255409
0.255462
0.255501
0.255516
0.2555
0.255461
0.255403
0.255317
0.255153
0.254569
0.254647
0.278655
0.518897
0.641928
0.639563
0.63438
0.639387
0.640906
0.629353
0.62692
0.632265
0.641098
0.661089
0.677223
0.68555
0.692524
0.693642
0.676247
0.663539
0.665987
0.67322
0.687262
0.70494
0.716752
0.72541
0.733647
0.736392
0.7334
0.738042
0.746683
0.758585
0.7679
0.771916
0.765985
0.765249
0.773084
0.784881
0.797836
0.808355
0.809795
0.803971
0.802433
0.811679
0.829429
0.849978
0.866694
0.867971
0.858051
0.846291
0.842171
0.851154
0.862544
0.879449
0.891335
0.902226
0.909216
0.911495
0.920255
0.930726
0.940286
0.944802
0.944592
0.945313
0.941585
0.920744
0.88301
0.844944
0.820043
0.810138
0.812069
0.830447
0.84837
0.874392
0.890201
0.899949
)
;

boundaryField
{
    sides
    {
        type            calculated;
        value           nonuniform List<scalar> 2(0.899949 0.256323);
    }
    empty
    {
        type            empty;
    }
}


// ************************************************************************* //
