/*--------------------------------*- C++ -*----------------------------------*\
| =========                 |                                                 |
| \\      /  F ield         | OpenFOAM: The Open Source CFD Toolbox           |
|  \\    /   O peration     | Version:  2412                                  |
|   \\  /    A nd           | Website:  www.openfoam.com                      |
|    \\/     M anipulation  |                                                 |
\*---------------------------------------------------------------------------*/
FoamFile
{
    version     2.0;
    format      ascii;
    arch        "LSB;label=32;scalar=64";
    class       volScalarField;
    location    "0.0436597";
    object      TTR;
}
// * * * * * * * * * * * * * * * * * * * * * * * * * * * * * * * * * * * * * //

dimensions      [0 0 0 1 0 0 0];

internalField   nonuniform List<scalar> 
100
(
200
200
200
200
200
200
200
200
200
204.748
236.311
254.358
253.527
254.688
252.998
256.942
258.495
260.581
259.975
260.993
259.95
257.859
255.392
255.986
256.633
258.261
261.11
263.636
264.606
265.342
265.503
264.764
264.346
264.907
265.734
267.031
267.687
268.079
267.435
266.513
266.822
267.491
269.138
270.093
270.604
270.051
268.759
268.25
268.714
270.298
272.861
274.255
274.945
274.526
272.375
270.891
271.026
271.541
273.166
274.722
276.355
276.629
278.012
277.517
278.505
277.892
278.612
278.98
278.312
281.599
278.509
284.891
279.794
286.314
281.767
283.771
286.317
283.296
293.193
287.608
293.965
286.864
288.304
282.383
283.505
289.655
302.058
327.499
353.838
375.939
385.737
394.336
394.277
399.385
394.795
397.865
393.471
394.393
392.519
391.816
)
;

boundaryField
{
    sides
    {
        type            zeroGradient;
    }
    empty
    {
        type            empty;
    }
}


// ************************************************************************* //
