/*--------------------------------*- C++ -*----------------------------------*\
| =========                 |                                                 |
| \\      /  F ield         | OpenFOAM: The Open Source CFD Toolbox           |
|  \\    /   O peration     | Version:  2412                                  |
|   \\  /    A nd           | Website:  www.openfoam.com                      |
|    \\/     M anipulation  |                                                 |
\*---------------------------------------------------------------------------*/
FoamFile
{
    version     2.0;
    format      ascii;
    arch        "LSB;label=32;scalar=64";
    class       volVectorField;
    location    "0.000104293";
    object      U;
}
// * * * * * * * * * * * * * * * * * * * * * * * * * * * * * * * * * * * * * //

dimensions      [0 1 -1 0 0 0 0];

internalField   nonuniform List<vector> 
1800
(
(2.9 -5.00264e-14 0)
(2.9 9.96413e-15 0)
(2.9 5.28593e-14 0)
(2.9 -5.40894e-14 0)
(2.9 -2.99833e-14 0)
(2.9 -7.64634e-14 0)
(2.9 -8.11137e-14 0)
(2.9 -5.62545e-14 0)
(2.9 -5.42928e-14 0)
(2.9 -9.64747e-15 0)
(2.9 -5.9372e-15 0)
(2.9 -5.44444e-14 0)
(2.9 -9.36987e-14 0)
(2.9 -6.37514e-14 0)
(2.9 -7.12788e-14 0)
(2.9 -4.82006e-14 0)
(2.9 -7.94096e-15 0)
(2.9 -2.69246e-14 0)
(2.9 -3.16429e-14 0)
(2.9 -4.10197e-14 0)
(2.9 -2.81939e-14 0)
(2.9 -1.75031e-14 0)
(2.9 2.03367e-14 0)
(2.9 3.17921e-15 0)
(2.9 -1.58521e-14 0)
(2.9 -7.84736e-14 0)
(2.9 -6.3129e-14 0)
(2.9 -3.10645e-14 0)
(2.9 3.11704e-14 0)
(2.9 6.18356e-14 0)
(2.9 -3.35645e-14 0)
(2.9 -3.5559e-15 0)
(2.9 -6.25468e-14 0)
(2.9 -5.36731e-14 0)
(2.9 -8.7101e-15 0)
(2.9 1.31615e-14 0)
(2.9 -2.42659e-14 0)
(2.9 1.05917e-14 0)
(2.9 8.89679e-15 0)
(2.9 -2.00674e-14 0)
(2.9 1.5933e-15 0)
(2.9 3.1974e-14 0)
(2.9 5.26372e-15 0)
(2.9 1.80424e-14 0)
(2.9 -2.5706e-14 0)
(2.9 -3.72776e-14 0)
(2.9 8.0334e-15 0)
(2.9 7.86976e-14 0)
(2.9 5.71839e-14 0)
(2.9 6.3009e-14 0)
(2.9 4.30432e-14 0)
(2.9 -2.64994e-14 0)
(2.9 -3.48086e-15 0)
(2.9 -2.55418e-14 0)
(2.9 3.611e-14 0)
(2.9 3.21215e-14 0)
(2.9 -4.61095e-14 0)
(2.9 -3.46977e-14 0)
(2.9 -4.12562e-14 0)
(2.9 -9.60061e-14 0)
(2.9 -1.42156e-13 0)
(2.9 -3.24566e-14 0)
(2.9 3.65398e-14 0)
(2.9 -3.6903e-14 0)
(2.9 -7.19297e-14 0)
(2.9 -1.57766e-13 0)
(2.9 -1.61379e-13 0)
(2.9 -1.30331e-13 0)
(2.9 -7.19925e-14 0)
(2.9 -5.38636e-15 0)
(2.9 1.17173e-14 0)
(2.9 -9.98958e-14 0)
(2.9 -2.15229e-13 0)
(2.9 -1.71791e-13 0)
(2.9 -5.3719e-14 0)
(2.9 -1.43829e-14 0)
(2.9 2.21779e-15 0)
(2.9 -8.97898e-14 0)
(2.9 -1.04171e-13 0)
(2.9 -9.07114e-14 0)
(2.9 -8.41338e-14 0)
(2.9 -1.65871e-14 0)
(2.9 1.00401e-13 0)
(2.9 2.8398e-14 0)
(2.9 -6.06425e-14 0)
(2.9 -1.82644e-13 0)
(2.9 -1.20442e-13 0)
(2.9 -9.17853e-14 0)
(2.9 1.44032e-14 0)
(2.9 2.21261e-14 0)
(2.9 -9.2871e-14 0)
(2.9 -2.63893e-14 0)
(2.9 -1.56646e-13 0)
(2.9 -1.27499e-13 0)
(2.9 -5.74236e-14 0)
(2.9 -4.35804e-14 0)
(2.9 -3.05571e-14 0)
(2.9 2.99209e-14 0)
(2.9 -1.56696e-14 0)
(2.9 -6.14883e-14 0)
(2.9 2.22837e-14 0)
(2.9 5.67689e-14 0)
(2.9 1.05374e-14 0)
(2.9 2.05268e-14 0)
(2.9 -8.82321e-14 0)
(2.9 -1.27029e-13 0)
(2.9 6.59239e-16 0)
(2.9 7.38178e-14 0)
(2.9 1.267e-13 0)
(2.9 1.18968e-13 0)
(2.9 3.47334e-14 0)
(2.9 -6.69967e-14 0)
(2.9 -5.56978e-14 0)
(2.9 -8.91815e-14 0)
(2.9 4.52063e-14 0)
(2.9 6.58244e-14 0)
(2.9 -6.19747e-14 0)
(2.9 -5.08682e-14 0)
(2.9 -1.21989e-13 0)
(2.9 -1.93085e-13 0)
(2.9 -7.16288e-14 0)
(2.9 -5.29904e-14 0)
(2.9 -1.15732e-14 0)
(2.9 -3.09831e-14 0)
(2.9 -1.52152e-14 0)
(2.9 -1.48855e-13 0)
(2.9 -1.86921e-13 0)
(2.9 -6.94555e-14 0)
(2.9 1.08237e-14 0)
(2.9 -6.74323e-14 0)
(2.9 -1.38203e-13 0)
(2.9 -1.74413e-13 0)
(2.9 -1.64093e-13 0)
(2.9 -1.34071e-13 0)
(2.9 -7.52577e-14 0)
(2.9 4.29928e-14 0)
(2.9 7.84743e-15 0)
(2.9 -7.42834e-14 0)
(2.9 -3.5888e-14 0)
(2.9 -5.4001e-14 0)
(2.9 -1.27655e-14 0)
(2.9 3.41008e-14 0)
(2.9 1.53295e-13 0)
(2.9 8.15254e-14 0)
(2.9 -7.92168e-14 0)
(2.9 -2.05456e-13 0)
(2.9 -8.37008e-14 0)
(2.9 -6.06637e-14 0)
(2.9 -2.85755e-14 0)
(2.9 -8.65308e-14 0)
(2.9 -5.79312e-14 0)
(2.9 -9.31531e-14 0)
(2.9 -1.52612e-13 0)
(2.9 -1.55577e-13 0)
(2.9 -7.40833e-14 0)
(2.9 -5.8123e-14 0)
(2.9 3.34594e-15 0)
(2.9 1.57949e-14 0)
(2.9 -1.0747e-13 0)
(2.9 -1.47285e-13 0)
(2.9 -5.45988e-14 0)
(2.9 -1.3877e-14 0)
(2.9 2.48887e-14 0)
(2.9 -1.48421e-14 0)
(2.9 -6.79727e-14 0)
(2.9 -7.76951e-14 0)
(2.9 -3.66594e-14 0)
(2.9 9.28544e-15 0)
(2.9 4.31893e-14 0)
(2.9 7.35341e-15 0)
(2.9 -2.73589e-14 0)
(2.9 -4.54863e-14 0)
(2.9 -8.22811e-14 0)
(2.9 -1.08837e-13 0)
(2.9 1.47336e-14 0)
(2.9 -2.9118e-14 0)
(2.9 -5.22405e-14 0)
(2.9 -5.0671e-14 0)
(2.9 -1.32602e-13 0)
(2.9 -1.42745e-13 0)
(2.9 -8.4435e-15 0)
(2.9 -8.89239e-14 0)
(2.9 -3.47961e-14 0)
(2.9 -7.6482e-14 0)
(2.9 -3.44983e-14 0)
(2.9 -9.60867e-14 0)
(2.9 -1.44124e-13 0)
(2.9 -8.32044e-14 0)
(2.9 -3.97778e-14 0)
(2.9 -1.4156e-13 0)
(2.9 -1.64509e-13 0)
(2.9 -1.85103e-13 0)
(2.9 -1.03863e-13 0)
(2.9 -1.32036e-13 0)
(2.9 -1.3775e-13 0)
(2.9 -5.34225e-14 0)
(2.9 -7.3506e-14 0)
(2.9 -3.93154e-14 0)
(2.9 1.95118e-14 0)
(2.9 4.07612e-15 0)
(2.9 7.84388e-14 0)
(2.9 8.73822e-14 0)
(2.9 1.44713e-14 0)
(2.9 -1.26837e-14 0)
(2.9 -5.1957e-14 0)
(2.9 -1.23123e-13 0)
(2.9 -4.7952e-14 0)
(2.9 -3.24707e-14 0)
(2.9 -1.50902e-15 0)
(2.9 -3.08604e-14 0)
(2.9 -2.75754e-14 0)
(2.9 -5.01091e-14 0)
(2.9 -1.08784e-13 0)
(2.9 -7.35156e-14 0)
(2.9 -9.51815e-14 0)
(2.9 1.98697e-15 0)
(2.9 4.40973e-14 0)
(2.9 -1.45226e-14 0)
(2.9 -9.03492e-14 0)
(2.9 -1.60224e-13 0)
(2.9 -7.95556e-14 0)
(2.9 -7.06415e-14 0)
(2.9 -5.59482e-14 0)
(2.9 -4.18908e-14 0)
(2.9 -6.17843e-14 0)
(2.9 -7.1406e-14 0)
(2.9 -3.36607e-14 0)
(2.9 2.26994e-14 0)
(2.9 -8.12869e-14 0)
(2.9 -9.58474e-14 0)
(2.9 -8.99738e-14 0)
(2.9 -1.78089e-14 0)
(2.9 -4.18585e-14 0)
(2.9 -6.87732e-14 0)
(2.9 -7.23186e-14 0)
(2.9 -5.29929e-14 0)
(2.9 -2.22815e-14 0)
(2.9 -3.51437e-14 0)
(2.9 -4.18334e-14 0)
(2.9 -2.98947e-14 0)
(2.9 -5.24633e-14 0)
(2.9 -1.6345e-13 0)
(2.9 -8.15182e-14 0)
(2.9 -1.11195e-13 0)
(2.9 -5.60003e-14 0)
(2.9 -5.22723e-14 0)
(2.9 -5.08162e-14 0)
(2.9 -6.91117e-14 0)
(2.9 -3.51643e-14 0)
(2.9 -1.28605e-13 0)
(2.9 -1.60809e-13 0)
(2.9 -1.78392e-13 0)
(2.9 -7.32367e-14 0)
(2.9 -3.14269e-14 0)
(2.9 -9.18371e-14 0)
(2.9 -1.90348e-13 0)
(2.9 -1.1916e-13 0)
(2.9 -3.50035e-14 0)
(2.9 7.32896e-14 0)
(2.9 3.66878e-14 0)
(2.9 5.54893e-14 0)
(2.9 1.84976e-14 0)
(2.9 -1.12427e-13 0)
(2.9 -9.13188e-14 0)
(2.9 -4.42777e-14 0)
(2.9 -7.43314e-14 0)
(2.9 -8.90703e-15 0)
(2.9 -4.91067e-14 0)
(2.9 2.53871e-14 0)
(2.9 3.62251e-14 0)
(2.9 -2.08832e-14 0)
(2.9 3.22712e-14 0)
(2.9 1.75418e-15 0)
(2.9 3.19475e-14 0)
(2.9 -6.88062e-14 0)
(2.9 -2.12234e-14 0)
(2.9 2.82567e-14 0)
(2.9 -4.80034e-14 0)
(2.9 -1.01977e-13 0)
(2.9 -8.78606e-14 0)
(2.9 -9.11634e-14 0)
(2.9 -9.66269e-14 0)
(2.9 -1.30441e-13 0)
(2.9 -7.60269e-14 0)
(2.9 -4.43029e-14 0)
(2.9 -1.07697e-13 0)
(2.9 -2.56401e-14 0)
(2.9 1.6924e-14 0)
(2.9 -9.68575e-14 0)
(2.9 -1.01074e-13 0)
(2.9 -4.34549e-14 0)
(2.9 1.01554e-14 0)
(2.9 -5.89165e-14 0)
(2.9 -1.07092e-13 0)
(2.9 -1.5385e-13 0)
(2.9 -1.15017e-13 0)
(2.9 -7.29061e-15 0)
(2.9 -7.32205e-15 0)
(2.9 2.88932e-15 0)
(2.9 7.16529e-14 0)
(2.9 -1.0652e-13 0)
(2.9 -9.56753e-14 0)
(2.9 -9.40233e-14 0)
(2.9 -9.89673e-14 0)
(2.9 -7.78097e-15 0)
(2.9 1.55198e-14 0)
(2.9 5.8669e-14 0)
(2.9 2.28287e-14 0)
(2.9 -7.81804e-14 0)
(2.9 -1.29685e-13 0)
(2.9 -1.5739e-13 0)
(2.9 -1.41904e-13 0)
(2.9 -1.34996e-13 0)
(2.9 -4.78353e-14 0)
(2.9 -7.56405e-14 0)
(2.9 -1.62095e-13 0)
(2.9 -7.33862e-14 0)
(2.9 -1.67276e-14 0)
(2.9 5.82303e-14 0)
(2.9 9.14526e-15 0)
(2.9 -5.38479e-14 0)
(2.9 -7.73431e-14 0)
(2.9 -6.02919e-14 0)
(2.9 -5.34824e-14 0)
(2.9 -1.79323e-14 0)
(2.9 4.89399e-15 0)
(2.9 7.5489e-14 0)
(2.9 -7.34245e-15 0)
(2.9 1.87452e-15 0)
(2.9 2.97658e-14 0)
(2.9 -6.19539e-14 0)
(2.9 -1.41146e-14 0)
(2.9 1.22005e-14 0)
(2.9 -4.38926e-14 0)
(2.9 -1.12881e-13 0)
(2.9 -1.50146e-13 0)
(2.9 -1.46958e-13 0)
(2.9 -9.61237e-14 0)
(2.9 -1.33655e-13 0)
(2.9 -3.87491e-14 0)
(2.9 -8.72999e-14 0)
(2.9 -7.28242e-14 0)
(2.9 -5.42644e-14 0)
(2.9 -1.55687e-15 0)
(2.9 -2.55761e-14 0)
(2.9 -3.57808e-14 0)
(2.9 -7.01768e-14 0)
(2.9 -7.23186e-14 0)
(2.9 -1.2054e-13 0)
(2.9 -5.64329e-14 0)
(2.9 8.59557e-15 0)
(2.9 -6.10182e-14 0)
(2.9 -7.06293e-14 0)
(2.9 -1.75621e-13 0)
(2.9 -1.46963e-13 0)
(2.9 -1.04976e-13 0)
(2.9 -3.76989e-14 0)
(2.9 1.93184e-14 0)
(2.9 -3.72176e-14 0)
(2.9 2.85528e-14 0)
(2.9 -4.75168e-14 0)
(2.9 -3.03215e-14 0)
(2.9 -1.16637e-13 0)
(2.9 -4.40194e-14 0)
(2.9 6.51606e-14 0)
(2.9 7.63512e-14 0)
(2.9 1.03011e-13 0)
(2.9 6.88917e-14 0)
(2.9 -4.95945e-14 0)
(2.9 -9.41911e-14 0)
(2.9 -1.11624e-13 0)
(2.9 -8.5478e-14 0)
(2.9 -1.43135e-13 0)
(2.9 -7.56613e-14 0)
(2.9 -3.20351e-14 0)
(2.9 -1.20985e-13 0)
(2.9 -4.83616e-14 0)
(2.9 -2.57386e-14 0)
(2.9 -3.63378e-14 0)
(2.9 -4.69186e-14 0)
(2.9 -1.25543e-13 0)
(2.9 -1.24846e-13 0)
(2.9 -1.53079e-14 0)
(2.9 -2.53613e-14 0)
(2.9 -2.22536e-14 0)
(2.9 4.53338e-14 0)
(2.9 7.53324e-14 0)
(2.9 2.85367e-14 0)
(2.9 3.07324e-14 0)
(2.9 3.0838e-15 0)
(2.9 -9.17178e-14 0)
(2.9 -1.7437e-14 0)
(2.9 -3.05722e-14 0)
(2.9 -7.27348e-14 0)
(2.9 -1.47813e-13 0)
(2.9 -2.03508e-13 0)
(2.9 -1.88851e-13 0)
(2.9 -8.46584e-14 0)
(2.9 -1.40009e-13 0)
(2.9 -1.11255e-13 0)
(2.9 -9.94443e-14 0)
(2.9 -1.24334e-14 0)
(2.9 6.53098e-15 0)
(2.9 8.14529e-14 0)
(2.9 5.24269e-14 0)
(2.9 -6.24599e-14 0)
(2.9 -1.07255e-13 0)
(2.9 -8.51782e-14 0)
(2.9 -1.27251e-13 0)
(2.9 -4.3042e-14 0)
(2.9 -4.41804e-14 0)
(2.9 -1.16546e-13 0)
(2.9 -8.54292e-14 0)
(2.9 -1.54726e-13 0)
(2.9 -1.58015e-13 0)
(2.9 -8.84521e-14 0)
(2.9 -7.29049e-14 0)
(2.9 -4.91463e-14 0)
(2.9 -7.86611e-14 0)
(2.9 7.00969e-15 0)
(2.9 2.53734e-14 0)
(2.9 3.98354e-14 0)
(2.9 -1.21492e-13 0)
(2.9 -1.74635e-14 0)
(2.9 -1.5975e-14 0)
(2.9 1.11456e-13 0)
(2.9 1.72088e-13 0)
(2.9 9.53608e-14 0)
(2.9 4.97154e-17 0)
(2.9 -7.1197e-14 0)
(2.9 -5.87219e-14 0)
(2.9 -3.20859e-14 0)
(2.9 -1.05365e-13 0)
(2.9 -1.01669e-13 0)
(2.9 -6.23374e-14 0)
(2.9 -2.76845e-14 0)
(2.9 8.07524e-14 0)
(2.9 1.39287e-14 0)
(2.9 -6.95037e-14 0)
(2.9 -1.13443e-13 0)
(2.9 -7.35757e-14 0)
(2.9 -1.71344e-14 0)
(2.9 4.97325e-14 0)
(2.9 -7.90272e-15 0)
(2.9 8.80277e-16 0)
(2.9 2.32461e-14 0)
(2.9 8.38574e-14 0)
(2.9 1.06367e-13 0)
(2.9 8.69652e-14 0)
(2.9 -8.28899e-15 0)
(2.9 -6.69714e-15 0)
(2.9 2.4329e-14 0)
(2.9 -1.33356e-14 0)
(2.9 -2.48488e-14 0)
(2.9 -8.58537e-14 0)
(2.9 -1.10076e-13 0)
(2.9 -7.99829e-14 0)
(2.9 2.35618e-15 0)
(2.9 -6.19407e-14 0)
(2.9 -9.43634e-14 0)
(2.9 -8.22618e-14 0)
(2.9 -4.74318e-15 0)
(2.9 5.13716e-14 0)
(2.9 5.26659e-14 0)
(2.9 4.51538e-14 0)
(2.9 -3.60372e-14 0)
(2.9 -6.02682e-14 0)
(2.9 -4.93962e-14 0)
(2.9 -8.14232e-14 0)
(2.9 -6.94901e-14 0)
(2.9 -4.68017e-14 0)
(2.9 -7.03893e-14 0)
(2.9 -1.42677e-13 0)
(2.9 -1.39489e-13 0)
(2.9 -8.3515e-14 0)
(2.9 -5.2367e-14 0)
(2.9 -5.42544e-14 0)
(2.9 -6.56731e-14 0)
(2.9 -4.96381e-14 0)
(2.9 -4.50855e-14 0)
(2.9 1.0006e-14 0)
(2.9 9.02327e-16 0)
(2.9 -2.16421e-14 0)
(2.9 -2.65941e-14 0)
(2.9 -6.84023e-14 0)
(2.9 2.42559e-14 0)
(2.9 6.37854e-14 0)
(2.9 1.35768e-14 0)
(2.9 4.19874e-14 0)
(2.9 -2.02816e-14 0)
(2.9 -2.98313e-14 0)
(2.9 -8.49057e-14 0)
(2.9 -1.41955e-13 0)
(2.9 -1.32539e-13 0)
(2.9 -8.54408e-14 0)
(2.9 1.2737e-14 0)
(2.9 6.49226e-14 0)
(2.9 6.01783e-14 0)
(2.9 -1.01438e-13 0)
(2.9 -1.27183e-13 0)
(2.9 -2.7366e-14 0)
(2.9 6.30333e-14 0)
(2.9 -6.05658e-15 0)
(2.9 -2.45212e-14 0)
(2.9 2.58085e-14 0)
(2.9 2.0908e-14 0)
(2.9 1.23642e-13 0)
(2.9 1.11806e-13 0)
(2.9 1.05719e-13 0)
(2.9 8.18416e-15 0)
(2.9 7.50087e-14 0)
(2.9 -4.68313e-15 0)
(2.9 3.88975e-14 0)
(2.9 -1.62581e-14 0)
(2.9 -2.93891e-14 0)
(2.9 9.00147e-15 0)
(2.9 6.49439e-14 0)
(2.9 6.79967e-14 0)
(2.9 1.00209e-14 0)
(2.9 2.27879e-14 0)
(2.9 1.04116e-15 0)
(2.9 7.13146e-14 0)
(2.9 8.31178e-14 0)
(2.9 6.1426e-14 0)
(2.9 3.88422e-14 0)
(2.9 6.17211e-14 0)
(2.9 -2.01039e-14 0)
(2.9 -1.78372e-14 0)
(2.9 1.33404e-14 0)
(2.9 1.36519e-14 0)
(2.9 2.23147e-14 0)
(2.9 1.83718e-14 0)
(2.9 -6.79192e-14 0)
(2.9 -4.189e-14 0)
(2.9 -1.00946e-14 0)
(2.9 -3.06309e-14 0)
(2.9 -2.35651e-14 0)
(2.9 -3.24195e-14 0)
(2.9 -3.4554e-14 0)
(2.9 -9.65256e-14 0)
(2.9 -1.50134e-14 0)
(2.9 -8.6411e-15 0)
(2.9 5.97442e-14 0)
(2.9 5.74935e-14 0)
(2.9 3.65572e-15 0)
(2.9 -7.48473e-14 0)
(2.9 -1.13639e-13 0)
(2.9 -9.6495e-15 0)
(2.9 7.46342e-14 0)
(2.9 1.91315e-14 0)
(2.9 1.41961e-14 0)
(2.9 -5.57377e-14 0)
(2.9 -1.0026e-13 0)
(2.9 -4.45389e-14 0)
(2.9 -1.47419e-14 0)
(2.9 8.19529e-14 0)
(2.9 5.17461e-14 0)
(2.9 1.15265e-13 0)
(2.9 -2.96982e-14 0)
(2.9 -1.06774e-13 0)
(2.9 -7.02687e-14 0)
(2.9 2.65094e-14 0)
(2.9 -5.17631e-14 0)
(2.9 -4.53351e-14 0)
(2.9 -4.07655e-14 0)
(2.9 1.81051e-14 0)
(2.9 4.68953e-14 0)
(2.9 8.94455e-14 0)
(2.9 5.65431e-14 0)
(2.9 3.92711e-14 0)
(2.9 2.25067e-14 0)
(2.9 -7.48235e-14 0)
(2.9 7.19178e-14 0)
(2.9 -1.49874e-14 0)
(2.9 8.13975e-14 0)
(2.9 7.85488e-14 0)
(2.9 8.40749e-14 0)
(2.9 1.63575e-14 0)
(2.9 2.25586e-14 0)
(2.9 4.67786e-14 0)
(2.9 9.20602e-14 0)
(2.9 1.09857e-13 0)
(2.9 9.23766e-14 0)
(2.9 5.59839e-14 0)
(2.9 4.04471e-14 0)
(2.9 1.04225e-13 0)
(2.9 3.05795e-14 0)
(2.9 7.50646e-15 0)
(2.9 8.84501e-14 0)
(2.9 9.9268e-14 0)
(2.9 2.72491e-14 0)
(2.9 9.17681e-14 0)
(2.9 2.25429e-15 0)
(2.9 1.02169e-14 0)
(2.9 4.01969e-14 0)
(2.9 -1.78323e-14 0)
(2.9 -4.44595e-14 0)
(2.9 -7.49184e-14 0)
(2.9 -1.84388e-14 0)
(2.9 1.08422e-14 0)
(2.9 -5.56866e-14 0)
(2.9 -1.0243e-14 0)
(2.9 9.0344e-14 0)
(2.9 4.30658e-14 0)
(2.9 -2.98329e-14 0)
(2.9 -1.17991e-13 0)
(2.9 -6.56223e-14 0)
(2.9 5.12642e-14 0)
(2.9 8.33336e-14 0)
(2.9 1.45096e-14 0)
(2.9 5.12519e-14 0)
(2.9 3.62908e-14 0)
(2.9 5.9857e-14 0)
(2.9 2.7843e-14 0)
(2.9 4.35362e-14 0)
(2.9 1.91646e-13 0)
(2.9 8.69726e-14 0)
(2.9 9.00641e-14 0)
(2.9 1.13762e-13 0)
(2.9 -3.49596e-14 0)
(2.9 -8.48931e-14 0)
(2.9 -2.78474e-15 0)
(2.9 -6.15492e-14 0)
(2.9 -3.79146e-14 0)
(2.9 -5.98418e-14 0)
(2.9 -1.85082e-14 0)
(2.9 -5.79634e-14 0)
(2.9 4.74653e-14 0)
(2.9 -2.49965e-14 0)
(2.9 8.29423e-15 0)
(2.9 -5.85824e-15 0)
(2.9 -1.04288e-13 0)
(2.9 1.2668e-14 0)
(2.9 -1.80768e-15 0)
(2.9 1.25655e-13 0)
(2.9 1.45261e-13 0)
(2.9 1.05369e-13 0)
(2.9 -1.87995e-14 0)
(2.9 1.07954e-14 0)
(2.9 8.37222e-14 0)
(2.9 1.25496e-13 0)
(2.9 5.80032e-14 0)
(2.9 7.62263e-14 0)
(2.9 2.9019e-14 0)
(2.9 -9.96455e-15 0)
(2.9 5.597e-14 0)
(2.9 -1.31123e-14 0)
(2.9 9.0678e-15 0)
(2.9 5.36349e-14 0)
(2.9 3.41484e-14 0)
(2.9 -1.38263e-14 0)
(2.9 2.96397e-14 0)
(2.9 -8.13266e-15 0)
(2.9 1.04357e-14 0)
(2.9 3.40857e-14 0)
(2.9 3.11893e-14 0)
(2.9 -1.36157e-14 0)
(2.9 -9.47945e-14 0)
(2.9 5.50577e-14 0)
(2.9 1.22725e-13 0)
(2.9 -2.97041e-14 0)
(2.9 2.84232e-14 0)
(2.9 3.24237e-14 0)
(2.9 -2.44218e-14 0)
(2.9 -5.14625e-14 0)
(2.9 -1.16729e-13 0)
(2.9 -6.86079e-14 0)
(2.9 5.168e-14 0)
(2.9 1.2503e-13 0)
(2.9 2.92885e-14 0)
(2.9 7.34327e-14 0)
(2.9 6.20464e-14 0)
(2.9 7.00236e-14 0)
(2.9 -2.00668e-15 0)
(2.9 1.47068e-14 0)
(2.9 9.15823e-14 0)
(2.9 1.47749e-14 0)
(2.9 -6.67566e-15 0)
(2.9 4.89082e-14 0)
(2.9 1.95302e-14 0)
(2.9 -4.34179e-14 0)
(2.9 -5.51183e-14 0)
(2.9 -4.04909e-14 0)
(2.9 2.45789e-16 0)
(2.9 -3.03176e-14 0)
(2.9 -5.99641e-14 0)
(2.9 -3.37585e-14 0)
(2.9 -3.46792e-14 0)
(2.9 -5.24508e-14 0)
(2.9 2.01522e-14 0)
(2.9 4.15015e-14 0)
(2.9 -4.28651e-14 0)
(2.9 -8.0837e-14 0)
(2.9 -2.58769e-14 0)
(2.9 1.0258e-13 0)
(2.9 1.18518e-13 0)
(2.9 4.81899e-14 0)
(2.9 1.89632e-14 0)
(2.9 7.18588e-14 0)
(2.9 5.17987e-14 0)
(2.9 1.09006e-13 0)
(2.9 1.60508e-14 0)
(2.9 2.257e-14 0)
(2.9 1.4537e-14 0)
(2.9 -1.13492e-14 0)
(2.9 -4.81476e-14 0)
(2.9 1.35091e-14 0)
(2.9 -2.22026e-14 0)
(2.9 -3.48629e-14 0)
(2.9 -1.42084e-14 0)
(2.9 -5.28852e-14 0)
(2.9 -4.67747e-14 0)
(2.9 5.2311e-15 0)
(2.9 6.02076e-14 0)
(2.9 -3.17181e-15 0)
(2.9 1.59772e-14 0)
(2.9 -4.37925e-14 0)
(2.9 -6.10505e-14 0)
(2.9 4.00011e-14 0)
(2.9 1.52252e-13 0)
(2.9 1.5745e-14 0)
(2.9 -9.9519e-15 0)
(2.9 -1.76872e-14 0)
(2.9 5.81473e-14 0)
(2.9 -1.03621e-14 0)
(2.9 -2.46432e-14 0)
(2.9 -3.73533e-14 0)
(2.9 -2.63773e-14 0)
(2.9 6.84925e-15 0)
(2.9 -2.50264e-15 0)
(2.9 7.13348e-14 0)
(2.9 6.4814e-14 0)
(2.9 6.56297e-14 0)
(2.9 6.36831e-14 0)
(2.9 3.43054e-14 0)
(2.9 -4.03692e-14 0)
(2.9 -3.68432e-14 0)
(2.9 -4.68179e-14 0)
(2.9 -2.51162e-15 0)
(2.9 9.2937e-14 0)
(2.9 5.61583e-14 0)
(2.9 -7.76227e-15 0)
(2.9 2.25615e-14 0)
(2.9 -1.59431e-14 0)
(2.9 -4.43178e-14 0)
(2.9 1.72264e-14 0)
(2.9 -5.04138e-14 0)
(2.9 -1.08055e-13 0)
(2.9 -6.57083e-14 0)
(2.9 6.27936e-14 0)
(2.9 7.29744e-14 0)
(2.9 8.08476e-15 0)
(2.9 -4.30422e-15 0)
(2.9 4.28004e-14 0)
(2.9 6.06207e-14 0)
(2.9 6.50054e-14 0)
(2.9 6.05657e-14 0)
(2.9 7.41325e-14 0)
(2.9 1.12744e-13 0)
(2.9 6.59068e-14 0)
(2.9 4.41585e-14 0)
(2.9 -2.67214e-14 0)
(2.9 2.71557e-14 0)
(2.9 -9.93821e-15 0)
(2.9 -3.99182e-14 0)
(2.9 7.56908e-15 0)
(2.9 1.98944e-14 0)
(2.9 -4.67268e-14 0)
(2.9 -3.5138e-14 0)
(2.9 1.51006e-14 0)
(2.9 1.00222e-15 0)
(2.9 -1.42476e-14 0)
(2.9 4.14883e-14 0)
(2.9 8.04235e-14 0)
(2.9 6.25938e-14 0)
(2.9 3.66561e-14 0)
(2.9 -3.47307e-14 0)
(2.9 1.65848e-14 0)
(2.9 6.60677e-14 0)
(2.9 1.37554e-13 0)
(2.9 -5.95846e-14 0)
(2.9 -6.58732e-14 0)
(2.9 1.97338e-14 0)
(2.9 9.39047e-14 0)
(2.9 1.16661e-14 0)
(2.9 -5.75358e-15 0)
(2.9 3.17449e-14 0)
(2.9 -4.93524e-14 0)
(2.9 -4.79837e-14 0)
(2.9 5.494e-14 0)
(2.9 9.34006e-14 0)
(2.9 9.10275e-14 0)
(2.9 1.7014e-13 0)
(2.9 1.48566e-13 0)
(2.9 1.68239e-14 0)
(2.9 -1.39965e-13 0)
(2.9 -5.16022e-14 0)
(2.9 1.87077e-14 0)
(2.9 4.72527e-14 0)
(2.9 1.33021e-13 0)
(2.9 1.08497e-13 0)
(2.9 5.10241e-14 0)
(2.9 8.59415e-14 0)
(2.9 3.16085e-14 0)
(2.9 2.01385e-14 0)
(2.9 2.28107e-14 0)
(2.9 -1.1359e-13 0)
(2.9 -1.87245e-13 0)
(2.9 -6.68496e-14 0)
(2.9 8.30929e-14 0)
(2.9 9.61232e-14 0)
(2.9 7.2686e-14 0)
(2.9 7.46364e-14 0)
(2.9 1.12866e-13 0)
(2.9 2.10378e-14 0)
(2.9 6.34283e-14 0)
(2.9 8.20206e-14 0)
(2.9 3.31311e-14 0)
(2.9 1.4042e-13 0)
(2.9 7.57929e-14 0)
(2.9 2.28401e-14 0)
(2.9 -4.8427e-14 0)
(2.9 -4.07393e-14 0)
(2.9 -6.32897e-14 0)
(2.9 -2.50083e-14 0)
(2.9 5.99833e-14 0)
(2.9 6.39304e-14 0)
(2.9 -1.86591e-16 0)
(2.9 4.25247e-14 0)
(2.9 4.64627e-14 0)
(2.9 5.96436e-14 0)
(2.9 7.7344e-14 0)
(2.9 2.32366e-14 0)
(2.9 2.49528e-14 0)
(2.9 3.80868e-14 0)
(2.9 1.4447e-14 0)
(2.9 -1.48105e-14 0)
(2.9 1.25518e-13 0)
(2.9 1.31243e-13 0)
(2.9 1.79546e-13 0)
(2.9 -1.43259e-13 0)
(2.9 -1.23737e-13 0)
(2.9 8.10459e-17 0)
(2.9 4.80684e-14 0)
(2.9 1.54239e-14 0)
(2.9 -7.50866e-15 0)
(2.9 3.86615e-14 0)
(2.9 1.91811e-14 0)
(2.9 3.29866e-14 0)
(2.9 1.34922e-13 0)
(2.9 5.7757e-14 0)
(2.9 5.19327e-14 0)
(2.9 9.6243e-14 0)
(2.9 8.35091e-14 0)
(2.9 -1.29015e-14 0)
(2.9 -9.32484e-14 0)
(2.9 4.26073e-14 0)
(2.9 1.14057e-13 0)
(2.9 9.66086e-14 0)
(2.9 1.19399e-13 0)
(2.9 1.26823e-13 0)
(2.9 9.7403e-14 0)
(2.9 6.10566e-14 0)
(2.9 9.3472e-14 0)
(2.9 1.23061e-13 0)
(2.9 -6.6055e-15 0)
(2.9 -6.1541e-14 0)
(2.9 -1.41127e-13 0)
(2.9 -1.81482e-14 0)
(2.9 6.5178e-14 0)
(2.9 6.63285e-14 0)
(2.9 2.95251e-14 0)
(2.9 1.88016e-14 0)
(2.9 7.27644e-14 0)
(2.9 -1.97654e-15 0)
(2.9 3.06564e-14 0)
(2.9 -2.70058e-15 0)
(2.9 -7.12737e-14 0)
(2.9 1.84798e-14 0)
(2.9 2.09555e-15 0)
(2.9 2.03068e-14 0)
(2.9 -8.9651e-15 0)
(2.9 -4.98114e-14 0)
(2.9 -1.0823e-13 0)
(2.9 -6.53661e-14 0)
(2.9 -4.53547e-14 0)
(2.9 3.07105e-14 0)
(2.9 -2.78597e-14 0)
(2.9 7.28012e-15 0)
(2.9 -6.32325e-14 0)
(2.9 -1.92219e-14 0)
(2.9 -3.06302e-15 0)
(2.9 -1.8207e-14 0)
(2.9 1.85761e-14 0)
(2.9 -3.59985e-15 0)
(2.9 -5.95653e-15 0)
(2.9 6.72654e-14 0)
(2.9 7.87812e-14 0)
(2.9 3.02804e-14 0)
(2.9 9.65784e-14 0)
(2.9 -4.98815e-14 0)
(2.9 -8.8337e-14 0)
(2.9 -1.78049e-14 0)
(2.9 1.59696e-14 0)
(2.9 5.871e-14 0)
(2.9 3.84899e-14 0)
(2.9 -8.61191e-15 0)
(2.9 3.64379e-14 0)
(2.9 4.86517e-14 0)
(2.9 8.90405e-14 0)
(2.9 2.35731e-14 0)
(2.9 7.11925e-15 0)
(2.9 8.48477e-15 0)
(2.9 3.24853e-14 0)
(2.9 4.69717e-14 0)
(2.9 1.74809e-14 0)
(2.9 3.17375e-14 0)
(2.9 9.45592e-14 0)
(2.9 1.26777e-13 0)
(2.9 1.19652e-13 0)
(2.9 1.17077e-13 0)
(2.9 6.62623e-14 0)
(2.9 4.41485e-14 0)
(2.9 8.77277e-14 0)
(2.9 5.08351e-14 0)
(2.9 6.30804e-14 0)
(2.9 -1.07604e-14 0)
(2.9 2.21736e-14 0)
(2.9 4.42076e-14 0)
(2.9 3.42632e-14 0)
(2.9 1.1799e-14 0)
(2.9 9.18872e-14 0)
(2.9 6.15287e-16 0)
(2.9 2.41867e-14 0)
(2.9 4.54835e-14 0)
(2.9 -3.18845e-14 0)
(2.9 -8.56898e-14 0)
(2.9 -3.69182e-14 0)
(2.9 -6.60354e-14 0)
(2.9 -8.00346e-14 0)
(2.9 -5.14381e-14 0)
(2.9 8.68396e-16 0)
(2.9 -7.74308e-14 0)
(2.9 -2.72587e-14 0)
(2.9 -7.29588e-14 0)
(2.9 -1.33119e-13 0)
(2.9 -5.92712e-14 0)
(2.9 -9.69357e-14 0)
(2.9 7.86541e-15 0)
(2.9 -6.19203e-14 0)
(2.9 -2.38067e-14 0)
(2.9 -4.28451e-14 0)
(2.9 5.01352e-14 0)
(2.9 -1.90773e-15 0)
(2.9 -4.11821e-14 0)
(2.9 -1.05807e-14 0)
(2.9 1.10499e-13 0)
(2.9 7.33017e-14 0)
(2.9 -2.90007e-14 0)
(2.9 -8.93882e-14 0)
(2.9 -1.14124e-14 0)
(2.9 -8.40403e-14 0)
(2.9 1.01344e-14 0)
(2.9 -1.73386e-14 0)
(2.9 2.83507e-14 0)
(2.9 1.02643e-13 0)
(2.9 3.17087e-14 0)
(2.9 9.74255e-15 0)
(2.9 3.68925e-14 0)
(2.9 3.10695e-14 0)
(2.9 6.89578e-14 0)
(2.9 4.58833e-14 0)
(2.9 -2.85651e-14 0)
(2.9 7.9246e-14 0)
(2.9 1.03538e-13 0)
(2.9 6.45924e-14 0)
(2.9 -5.46645e-14 0)
(2.9 4.45368e-14 0)
(2.9 1.69472e-13 0)
(2.9 9.4849e-14 0)
(2.9 4.36561e-14 0)
(2.9 2.38386e-14 0)
(2.9 7.04488e-15 0)
(2.9 2.76538e-14 0)
(2.9 -5.2309e-14 0)
(2.9 2.83925e-14 0)
(2.9 8.93841e-14 0)
(2.9 1.54418e-13 0)
(2.9 6.81717e-14 0)
(2.9 1.01598e-14 0)
(2.9 -2.21706e-14 0)
(2.9 1.1891e-13 0)
(2.9 4.0207e-14 0)
(2.9 -3.24504e-14 0)
(2.9 6.10089e-14 0)
(2.9 -4.07518e-14 0)
(2.9 -5.576e-14 0)
(2.9 2.88269e-14 0)
(2.9 -8.71444e-14 0)
(2.9 -6.20896e-14 0)
(2.9 -1.05754e-13 0)
(2.9 -2.02563e-14 0)
(2.9 -1.00658e-13 0)
(2.9 4.15867e-14 0)
(2.9 3.30157e-14 0)
(2.9 -6.0635e-14 0)
(2.9 -1.00367e-13 0)
(2.9 -6.29596e-14 0)
(2.9 -3.17632e-14 0)
(2.9 1.92742e-14 0)
(2.9 -1.9383e-14 0)
(2.9 -7.85576e-14 0)
(2.9 5.93664e-14 0)
(2.9 -7.65219e-14 0)
(2.9 -6.07963e-14 0)
(2.9 2.29528e-14 0)
(2.9 8.046e-14 0)
(2.9 1.17507e-13 0)
(2.9 -2.14275e-14 0)
(2.9 -1.93965e-13 0)
(2.9 -3.68291e-14 0)
(2.9 -4.23723e-14 0)
(2.9 -3.95364e-15 0)
(2.9 -7.45729e-14 0)
(2.9 -3.56722e-15 0)
(2.9 4.27505e-14 0)
(2.9 6.10483e-14 0)
(2.9 5.77034e-14 0)
(2.9 1.1859e-13 0)
(2.9 5.34923e-14 0)
(2.9 2.97535e-14 0)
(2.9 2.17195e-14 0)
(2.9 1.75302e-14 0)
(2.9 3.96982e-14 0)
(2.9 4.42728e-14 0)
(2.9 4.12049e-14 0)
(2.9 -3.92617e-14 0)
(2.9 2.74677e-14 0)
(2.9 6.64366e-14 0)
(2.9 3.12658e-14 0)
(2.9 3.07109e-14 0)
(2.9 3.07002e-14 0)
(2.9 5.85003e-14 0)
(2.9 9.2295e-14 0)
(2.9 2.04839e-14 0)
(2.9 -3.67118e-15 0)
(2.9 4.18236e-14 0)
(2.9 9.23276e-14 0)
(2.9 2.10676e-14 0)
(2.9 5.27315e-14 0)
(2.9 2.27805e-14 0)
(2.9 8.48403e-14 0)
(2.9 2.32814e-14 0)
(2.9 -2.76534e-14 0)
(2.9 4.89481e-14 0)
(2.9 7.28693e-15 0)
(2.9 -3.7243e-14 0)
(2.9 3.42945e-14 0)
(2.9 -2.89816e-14 0)
(2.9 -2.19186e-14 0)
(2.9 -9.4026e-14 0)
(2.9 -1.72739e-14 0)
(2.9 -1.50103e-14 0)
(2.9 -7.76949e-15 0)
(2.9 3.20143e-14 0)
(2.9 1.44205e-14 0)
(2.9 -3.41153e-14 0)
(2.9 -9.05263e-15 0)
(2.9 2.85359e-14 0)
(2.9 3.60596e-14 0)
(2.9 -5.82239e-16 0)
(2.9 1.03634e-14 0)
(2.9 4.74669e-14 0)
(2.9 -9.64402e-15 0)
(2.9 1.84462e-14 0)
(2.9 6.6824e-14 0)
(2.9 6.89327e-14 0)
(2.9 6.75689e-14 0)
(2.9 -2.37434e-14 0)
(2.9 -1.65566e-13 0)
(2.9 -6.21284e-14 0)
(2.9 -2.7138e-14 0)
(2.9 -5.00106e-14 0)
(2.9 -1.32647e-13 0)
(2.9 -4.72626e-14 0)
(2.9 -3.16875e-14 0)
(2.9 -1.33783e-14 0)
(2.9 -1.23893e-14 0)
(2.9 7.37137e-14 0)
(2.9 9.27724e-14 0)
(2.9 2.32062e-15 0)
(2.9 -1.65642e-14 0)
(2.9 -5.52e-15 0)
(2.9 -3.1765e-14 0)
(2.9 -1.9456e-14 0)
(2.9 -4.09654e-14 0)
(2.9 -6.24862e-15 0)
(2.9 9.42668e-15 0)
(2.9 -7.06259e-14 0)
(2.9 2.71673e-14 0)
(2.9 2.75472e-14 0)
(2.9 1.84714e-14 0)
(2.9 3.8907e-14 0)
(2.9 1.15692e-13 0)
(2.9 6.76644e-14 0)
(2.9 2.34593e-14 0)
(2.9 -2.51067e-14 0)
(2.9 -2.99849e-14 0)
(2.9 2.67646e-14 0)
(2.9 6.99291e-14 0)
(2.9 5.60968e-14 0)
(2.9 8.01156e-14 0)
(2.9 1.05339e-14 0)
(2.9 4.70803e-14 0)
(2.9 7.27505e-14 0)
(2.9 6.61977e-14 0)
(2.9 1.81459e-14 0)
(2.9 -3.23544e-14 0)
(2.9 3.24192e-14 0)
(2.9 7.42911e-14 0)
(2.9 7.70366e-15 0)
(2.9 2.62723e-14 0)
(2.9 7.29024e-14 0)
(2.9 -1.79913e-14 0)
(2.9 -4.63101e-14 0)
(2.9 4.97322e-15 0)
(2.9 2.64459e-14 0)
(2.9 3.00382e-14 0)
(2.9 8.66524e-15 0)
(2.9 7.05247e-14 0)
(2.9 5.5283e-14 0)
(2.9 1.19538e-13 0)
(2.9 8.08288e-14 0)
(2.9 9.51697e-14 0)
(2.9 9.16085e-14 0)
(2.9 1.45782e-13 0)
(2.9 8.70672e-14 0)
(2.9 5.75277e-14 0)
(2.9 -8.21519e-14 0)
(2.9 -1.1338e-13 0)
(2.9 -3.60661e-14 0)
(2.9 -3.02738e-15 0)
(2.9 -5.12391e-14 0)
(2.9 -1.02106e-13 0)
(2.9 -1.01515e-13 0)
(2.9 -1.0473e-13 0)
(2.9 -6.86989e-14 0)
(2.9 -8.03056e-14 0)
(2.9 -1.90064e-14 0)
(2.9 -3.4015e-14 0)
(2.9 4.61799e-14 0)
(2.9 2.18551e-14 0)
(2.9 5.76913e-16 0)
(2.9 -6.5994e-14 0)
(2.9 -3.80762e-14 0)
(2.9 -2.03873e-14 0)
(2.9 3.72565e-14 0)
(2.9 -2.60248e-14 0)
(2.9 -1.1865e-13 0)
(2.9 7.44072e-15 0)
(2.9 8.58264e-14 0)
(2.9 -2.82823e-14 0)
(2.9 -1.41687e-14 0)
(2.9 4.91164e-14 0)
(2.9 2.69642e-14 0)
(2.9 6.21358e-14 0)
(2.9 -3.45209e-14 0)
(2.9 -1.09436e-13 0)
(2.9 1.6899e-14 0)
(2.9 5.77939e-14 0)
(2.9 8.04708e-14 0)
(2.9 6.05202e-14 0)
(2.9 2.6998e-14 0)
(2.9 3.98074e-14 0)
(2.9 1.09839e-14 0)
(2.9 3.88719e-14 0)
(2.9 4.44079e-14 0)
(2.9 -3.69562e-14 0)
(2.9 8.35322e-14 0)
(2.9 1.62445e-13 0)
(2.9 9.37699e-14 0)
(2.9 3.0039e-15 0)
(2.9 8.2476e-14 0)
(2.9 2.9137e-14 0)
(2.9 2.45236e-14 0)
(2.9 5.83051e-14 0)
(2.9 9.34607e-15 0)
(2.9 9.23163e-14 0)
(2.9 -8.86365e-15 0)
(2.9 9.69013e-14 0)
(2.9 1.21295e-13 0)
(2.9 1.39553e-13 0)
(2.9 1.26657e-13 0)
(2.9 1.5037e-13 0)
(2.9 1.17455e-13 0)
(2.9 1.70965e-13 0)
(2.9 1.65239e-13 0)
(2.9 6.87545e-14 0)
(2.9 -4.3065e-14 0)
(2.9 7.25056e-15 0)
(2.9 2.83519e-14 0)
(2.9 3.88343e-14 0)
(2.9 2.36202e-14 0)
(2.9 4.44591e-15 0)
(2.9 -1.02208e-13 0)
(2.9 -1.02069e-13 0)
(2.9 -7.94854e-14 0)
(2.9 -4.34356e-14 0)
(2.9 -8.93301e-14 0)
(2.9 -1.90379e-14 0)
(2.9 4.50255e-14 0)
(2.9 4.01965e-15 0)
(2.9 -3.55015e-14 0)
(2.9 -1.23297e-13 0)
(2.9 -2.77485e-14 0)
(2.9 1.78549e-14 0)
(2.9 5.44052e-14 0)
(2.9 2.52472e-15 0)
(2.9 -6.65566e-14 0)
(2.9 -4.70357e-14 0)
(2.9 5.65702e-14 0)
(2.9 5.07328e-14 0)
(2.9 -3.17562e-14 0)
(2.9 -2.6783e-14 0)
(2.9 -4.41555e-14 0)
(2.9 -2.6634e-14 0)
(2.9 -7.01347e-14 0)
(2.9 -9.81647e-14 0)
(2.9 -1.43786e-14 0)
(2.9 3.01247e-14 0)
(2.9 4.91562e-14 0)
(2.9 -2.43473e-14 0)
(2.9 1.04458e-14 0)
(2.9 3.89097e-14 0)
(2.9 -3.51668e-14 0)
(2.9 4.87967e-14 0)
(2.9 8.5366e-14 0)
(2.9 1.07399e-14 0)
(2.9 8.86046e-14 0)
(2.9 1.3465e-13 0)
(2.9 3.85917e-14 0)
(2.9 -4.53384e-14 0)
(2.9 1.86604e-14 0)
(2.9 -2.26103e-14 0)
(2.9 4.65746e-14 0)
(2.9 2.64566e-14 0)
(2.9 3.26892e-14 0)
(2.9 6.07132e-14 0)
(2.9 8.74468e-15 0)
(2.9 1.95108e-14 0)
(2.9 8.96134e-14 0)
(2.9 8.28104e-14 0)
(2.9 2.5467e-14 0)
(2.9 6.167e-14 0)
(2.9 5.53335e-16 0)
(2.9 7.82042e-15 0)
(2.9 1.11569e-13 0)
(2.9 6.85168e-14 0)
(2.9 8.10083e-14 0)
(2.9 1.24089e-13 0)
(2.9 7.48633e-14 0)
(2.9 1.01078e-13 0)
(2.9 8.25046e-14 0)
(2.9 5.07597e-14 0)
(2.9 -5.62641e-14 0)
(2.9 -4.72039e-14 0)
(2.9 -6.24975e-14 0)
(2.9 -3.0656e-14 0)
(2.9 -8.22314e-14 0)
(2.9 1.46292e-14 0)
(2.9 -1.17252e-14 0)
(2.9 -1.64949e-14 0)
(2.9 -1.15579e-13 0)
(2.9 -1.22683e-13 0)
(2.9 1.3399e-14 0)
(2.9 7.91457e-14 0)
(2.9 7.0037e-14 0)
(2.9 -1.77294e-14 0)
(2.9 -3.80059e-14 0)
(2.9 -6.46026e-14 0)
(2.9 7.031e-14 0)
(2.9 4.41506e-14 0)
(2.9 -1.59538e-14 0)
(2.9 -1.379e-13 0)
(2.9 -7.51021e-14 0)
(2.9 -7.83477e-14 0)
(2.9 -8.85232e-14 0)
(2.9 -7.07007e-14 0)
(2.9 1.53946e-14 0)
(2.9 -3.46292e-16 0)
(2.9 9.95157e-15 0)
(2.9 -6.25249e-14 0)
(2.9 1.61085e-14 0)
(2.9 5.01617e-14 0)
(2.9 -5.80269e-14 0)
(2.9 3.11348e-14 0)
(2.9 1.27473e-13 0)
(2.9 5.71231e-14 0)
(2.9 4.20481e-14 0)
(2.9 6.5907e-15 0)
(2.9 2.71489e-14 0)
(2.9 -3.16597e-14 0)
(2.9 5.13539e-16 0)
(2.9 -4.39465e-14 0)
(2.9 1.24923e-14 0)
(2.9 2.11179e-14 0)
(2.9 8.03528e-14 0)
(2.9 1.27935e-14 0)
(2.9 3.51376e-14 0)
(2.9 -4.17234e-14 0)
(2.9 2.56607e-15 0)
(2.9 2.2841e-15 0)
(2.9 -6.29399e-14 0)
(2.9 -2.7957e-14 0)
(2.9 -7.05654e-14 0)
(2.9 -7.78321e-14 0)
(2.9 -1.14981e-14 0)
(2.9 -5.45486e-14 0)
(2.9 1.05829e-14 0)
(2.9 1.40653e-13 0)
(2.9 3.84163e-14 0)
(2.9 5.5323e-14 0)
(2.9 3.64941e-14 0)
(2.9 9.5141e-14 0)
(2.9 4.39907e-14 0)
(2.9 3.03179e-14 0)
(2.9 -6.56893e-16 0)
(2.9 1.17928e-14 0)
(2.9 -8.11356e-14 0)
(2.9 -3.17479e-14 0)
(2.9 -8.95916e-14 0)
(2.9 -3.24363e-14 0)
(2.9 -1.15413e-13 0)
(2.9 -9.14138e-14 0)
(2.9 -5.18576e-15 0)
(2.9 5.67367e-14 0)
(2.9 1.22354e-14 0)
(2.9 -7.33546e-14 0)
(2.9 -5.23618e-14 0)
(2.9 -2.49769e-14 0)
(2.9 4.0813e-14 0)
(2.9 -1.04e-15 0)
(2.9 -7.39577e-14 0)
(2.9 -1.92869e-13 0)
(2.9 -8.40018e-14 0)
(2.9 -4.2829e-14 0)
(2.9 -6.63596e-14 0)
(2.9 -4.65023e-14 0)
(2.9 3.94027e-14 0)
(2.9 -6.27271e-14 0)
(2.9 -4.31127e-14 0)
(2.9 -4.45395e-14 0)
(2.9 2.3689e-14 0)
(2.9 3.3662e-14 0)
(2.9 -1.62811e-14 0)
(2.9 -5.44043e-15 0)
(2.9 7.55862e-14 0)
(2.9 2.4775e-14 0)
(2.9 -1.4875e-14 0)
(2.9 -7.20537e-14 0)
(2.9 3.71559e-15 0)
(2.9 7.13773e-14 0)
(2.9 5.57146e-14 0)
(2.9 1.48752e-15 0)
(2.9 -4.39863e-14 0)
(2.9 -2.5955e-14 0)
(2.9 6.49619e-14 0)
(2.9 8.4691e-18 0)
(2.9 6.47713e-14 0)
(2.9 -2.74134e-14 0)
(2.9 3.06175e-14 0)
(2.9 -1.17546e-14 0)
(2.9 -1.13615e-13 0)
(2.9 -5.48319e-14 0)
(2.9 -6.24393e-14 0)
(2.9 -1.07802e-13 0)
(2.9 -7.62564e-14 0)
(2.9 -1.6515e-13 0)
(2.9 -1.00168e-13 0)
(2.9 1.17359e-14 0)
(2.9 6.72438e-14 0)
(2.9 4.43901e-14 0)
(2.9 -3.68841e-15 0)
(2.9 8.86038e-14 0)
(2.9 8.57133e-14 0)
(2.9 2.20469e-14 0)
(2.9 6.48685e-14 0)
(2.9 -4.53442e-14 0)
(2.9 -4.96089e-14 0)
(2.9 -7.5281e-14 0)
(2.9 -6.13154e-14 0)
(2.9 -2.32863e-14 0)
(2.9 -8.17731e-14 0)
(2.9 -9.99075e-14 0)
(2.9 -6.03991e-14 0)
(2.9 -4.69773e-14 0)
(2.9 -5.76028e-14 0)
(2.9 -4.22784e-14 0)
(2.9 -6.14977e-14 0)
(2.9 -5.73399e-14 0)
(2.9 -3.27445e-14 0)
(2.9 2.80714e-14 0)
(2.9 9.41419e-15 0)
(2.9 -1.58411e-13 0)
(2.9 -1.35776e-13 0)
(2.9 -1.03848e-13 0)
(2.9 -5.12198e-14 0)
(2.9 1.94242e-14 0)
(2.9 2.91407e-14 0)
(2.9 -6.52654e-14 0)
(2.9 -3.97336e-14 0)
(2.9 -3.03455e-14 0)
(2.9 -3.24414e-14 0)
(2.9 -6.31139e-14 0)
(2.9 -1.023e-13 0)
(2.9 -5.43429e-14 0)
(2.9 -3.82511e-14 0)
(2.9 -2.87147e-14 0)
(2.9 -6.77421e-14 0)
(2.9 -5.75574e-14 0)
(2.9 -6.26805e-16 0)
(2.9 9.69097e-14 0)
(2.9 3.78326e-14 0)
(2.9 6.49595e-15 0)
(2.9 8.48956e-16 0)