/*--------------------------------*- C++ -*----------------------------------*\
| =========                 |                                                 |
| \\      /  F ield         | OpenFOAM: The Open Source CFD Toolbox           |
|  \\    /   O peration     | Version:  2412                                  |
|   \\  /    A nd           | Website:  www.openfoam.com                      |
|    \\/     M anipulation  |                                                 |
\*---------------------------------------------------------------------------*/
FoamFile
{
    version     2.0;
    format      ascii;
    arch        "LSB;label=32;scalar=64";
    class       volVectorField;
    location    "4.6932e-05";
    object      U;
}
// * * * * * * * * * * * * * * * * * * * * * * * * * * * * * * * * * * * * * //

dimensions      [0 1 -1 0 0 0 0];

internalField   nonuniform List<vector> 
1800
(
(2.9 -3.03267e-14 0)
(2.9 1.18483e-14 0)
(2.9 3.7158e-14 0)
(2.9 -1.93955e-14 0)
(2.9 -2.85322e-14 0)
(2.9 -4.89146e-14 0)
(2.9 -5.70958e-14 0)
(2.9 -3.65951e-14 0)
(2.9 -2.26557e-14 0)
(2.9 -2.34298e-14 0)
(2.9 5.6921e-15 0)
(2.9 -3.23942e-14 0)
(2.9 -3.94249e-14 0)
(2.9 -7.08097e-15 0)
(2.9 -4.26364e-14 0)
(2.9 -5.32687e-15 0)
(2.9 -1.81816e-15 0)
(2.9 -1.11009e-14 0)
(2.9 -3.19524e-14 0)
(2.9 5.03318e-16 0)
(2.9 -2.7606e-14 0)
(2.9 -2.0128e-14 0)
(2.9 -9.62049e-15 0)
(2.9 1.1095e-14 0)
(2.9 -5.04491e-15 0)
(2.9 -4.05143e-14 0)
(2.9 -3.67301e-14 0)
(2.9 -2.84339e-14 0)
(2.9 4.71714e-14 0)
(2.9 7.9602e-14 0)
(2.9 1.72949e-14 0)
(2.9 3.42741e-14 0)
(2.9 -2.7314e-14 0)
(2.9 -4.36032e-14 0)
(2.9 4.32691e-15 0)
(2.9 -2.42306e-15 0)
(2.9 -5.7588e-15 0)
(2.9 2.4172e-14 0)
(2.9 1.8438e-15 0)
(2.9 -5.01115e-15 0)
(2.9 -8.20264e-15 0)
(2.9 1.6697e-14 0)
(2.9 -1.54705e-15 0)
(2.9 -4.54139e-15 0)
(2.9 -3.18182e-14 0)
(2.9 -1.8236e-15 0)
(2.9 4.42844e-14 0)
(2.9 7.09647e-14 0)
(2.9 2.39551e-14 0)
(2.9 4.13784e-14 0)
(2.9 2.54615e-15 0)
(2.9 -1.44354e-14 0)
(2.9 3.22237e-14 0)
(2.9 -7.45771e-16 0)
(2.9 4.0724e-15 0)
(2.9 6.90642e-15 0)
(2.9 -2.40627e-14 0)
(2.9 -1.39553e-14 0)
(2.9 -4.13456e-14 0)
(2.9 -6.82299e-14 0)
(2.9 -5.80298e-14 0)
(2.9 1.52431e-14 0)
(2.9 -2.74716e-15 0)
(2.9 -3.99075e-14 0)
(2.9 -5.08095e-14 0)
(2.9 -1.47327e-13 0)
(2.9 -1.24331e-13 0)
(2.9 -1.10713e-13 0)
(2.9 -4.18197e-14 0)
(2.9 -1.88362e-14 0)
(2.9 4.57283e-14 0)
(2.9 -1.63321e-14 0)
(2.9 -8.76349e-15 0)
(2.9 3.45103e-15 0)
(2.9 -2.27531e-14 0)
(2.9 1.72887e-14 0)
(2.9 -1.94359e-14 0)
(2.9 -3.21437e-14 0)
(2.9 -6.7985e-14 0)
(2.9 -3.60751e-14 0)
(2.9 -5.10354e-14 0)
(2.9 -2.65971e-14 0)
(2.9 1.80837e-14 0)
(2.9 6.10205e-14 0)
(2.9 -3.17999e-14 0)
(2.9 -1.20357e-13 0)
(2.9 -9.91224e-14 0)
(2.9 -6.3281e-14 0)
(2.9 5.27911e-14 0)
(2.9 1.09285e-13 0)
(2.9 1.04198e-14 0)
(2.9 3.45741e-14 0)
(2.9 -4.02974e-14 0)
(2.9 -9.20721e-14 0)
(2.9 -1.54446e-14 0)
(2.9 -2.09417e-14 0)
(2.9 3.32322e-15 0)
(2.9 7.1462e-14 0)
(2.9 -1.22038e-14 0)
(2.9 -3.69566e-14 0)
(2.9 -7.19198e-15 0)
(2.9 4.05934e-14 0)
(2.9 -4.01589e-15 0)
(2.9 -2.71545e-14 0)
(2.9 -1.70889e-15 0)
(2.9 -3.06602e-14 0)
(2.9 6.47444e-14 0)
(2.9 5.61703e-14 0)
(2.9 8.55522e-14 0)
(2.9 1.10191e-13 0)
(2.9 2.70798e-15 0)
(2.9 -4.37336e-14 0)
(2.9 3.12563e-14 0)
(2.9 -1.79865e-14 0)
(2.9 -5.33981e-15 0)
(2.9 6.84035e-15 0)
(2.9 -5.1288e-14 0)
(2.9 -8.33541e-16 0)
(2.9 -1.30963e-13 0)
(2.9 -8.67936e-14 0)
(2.9 -2.65105e-14 0)
(2.9 -2.58297e-15 0)
(2.9 -1.58428e-14 0)
(2.9 -1.58563e-14 0)
(2.9 -2.59161e-14 0)
(2.9 -1.01964e-13 0)
(2.9 -8.10051e-14 0)
(2.9 -4.04479e-14 0)
(2.9 2.51439e-14 0)
(2.9 -4.55149e-14 0)
(2.9 -4.96287e-15 0)
(2.9 -1.57433e-14 0)
(2.9 -1.73951e-15 0)
(2.9 -2.3061e-14 0)
(2.9 4.76074e-15 0)
(2.9 5.44291e-14 0)
(2.9 2.95095e-14 0)
(2.9 1.12867e-14 0)
(2.9 1.71353e-14 0)
(2.9 -4.29055e-14 0)
(2.9 1.67703e-15 0)
(2.9 2.78752e-14 0)
(2.9 2.83391e-14 0)
(2.9 4.81913e-14 0)
(2.9 -6.75361e-14 0)
(2.9 -1.10131e-13 0)
(2.9 -4.65492e-14 0)
(2.9 -2.48872e-14 0)
(2.9 4.1493e-14 0)
(2.9 -1.85604e-14 0)
(2.9 -2.30238e-14 0)
(2.9 -4.64052e-14 0)
(2.9 -4.74053e-14 0)
(2.9 -6.03536e-14 0)
(2.9 -3.10973e-14 0)
(2.9 -4.69985e-14 0)
(2.9 6.60861e-15 0)
(2.9 2.27473e-14 0)
(2.9 -2.21158e-14 0)
(2.9 -2.92645e-14 0)
(2.9 -1.63451e-14 0)
(2.9 -2.70953e-14 0)
(2.9 1.06961e-14 0)
(2.9 6.35957e-15 0)
(2.9 1.12387e-14 0)
(2.9 1.03221e-14 0)
(2.9 3.25334e-14 0)
(2.9 1.4981e-15 0)
(2.9 -7.69702e-15 0)
(2.9 3.2782e-14 0)
(2.9 -1.41483e-14 0)
(2.9 -1.49068e-14 0)
(2.9 -2.99463e-16 0)
(2.9 -1.45704e-15 0)
(2.9 -1.98855e-15 0)
(2.9 -1.8861e-14 0)
(2.9 -6.50776e-15 0)
(2.9 3.64286e-14 0)
(2.9 -5.65461e-14 0)
(2.9 -4.47745e-14 0)
(2.9 2.07775e-18 0)
(2.9 -3.47725e-14 0)
(2.9 1.59851e-14 0)
(2.9 -2.37249e-14 0)
(2.9 -3.51692e-14 0)
(2.9 -3.20933e-14 0)
(2.9 -6.8766e-14 0)
(2.9 -4.32043e-14 0)
(2.9 -3.28701e-15 0)
(2.9 -7.28205e-14 0)
(2.9 -4.03678e-14 0)
(2.9 -2.98081e-14 0)
(2.9 -2.48847e-14 0)
(2.9 -3.94902e-14 0)
(2.9 6.41304e-15 0)
(2.9 3.91176e-14 0)
(2.9 3.90398e-15 0)
(2.9 3.68746e-14 0)
(2.9 3.84998e-14 0)
(2.9 -7.93476e-16 0)
(2.9 5.90467e-14 0)
(2.9 6.79911e-14 0)
(2.9 -2.29728e-14 0)
(2.9 -1.29398e-14 0)
(2.9 -4.43615e-14 0)
(2.9 -4.0597e-14 0)
(2.9 5.79042e-14 0)
(2.9 -4.78279e-15 0)
(2.9 -1.10311e-14 0)
(2.9 -6.71824e-15 0)
(2.9 1.74338e-14 0)
(2.9 5.12842e-14 0)
(2.9 -1.77969e-14 0)
(2.9 1.53719e-15 0)
(2.9 -3.69197e-14 0)
(2.9 6.05882e-15 0)
(2.9 3.53315e-14 0)
(2.9 2.75534e-14 0)
(2.9 -4.05329e-16 0)
(2.9 -3.20402e-14 0)
(2.9 -1.1523e-14 0)
(2.9 -4.36781e-14 0)
(2.9 -4.12018e-14 0)
(2.9 -3.01157e-14 0)
(2.9 4.26205e-15 0)
(2.9 -4.4728e-14 0)
(2.9 -3.19394e-14 0)
(2.9 6.634e-15 0)
(2.9 -4.09209e-14 0)
(2.9 -4.35032e-14 0)
(2.9 -2.09219e-14 0)
(2.9 -2.47965e-16 0)
(2.9 2.88993e-14 0)
(2.9 1.7328e-14 0)
(2.9 -2.24722e-15 0)
(2.9 -1.69147e-14 0)
(2.9 3.45695e-14 0)
(2.9 -1.55713e-14 0)
(2.9 3.58995e-14 0)
(2.9 5.94255e-14 0)
(2.9 6.07975e-15 0)
(2.9 -7.99523e-14 0)
(2.9 9.74832e-15 0)
(2.9 -3.20318e-14 0)
(2.9 1.15406e-14 0)
(2.9 -2.78422e-15 0)
(2.9 -3.98953e-14 0)
(2.9 -4.77802e-14 0)
(2.9 -1.19066e-14 0)
(2.9 -2.31473e-14 0)
(2.9 -5.08899e-14 0)
(2.9 -4.47347e-14 0)
(2.9 9.79311e-15 0)
(2.9 2.26021e-14 0)
(2.9 -3.68536e-15 0)
(2.9 -1.0654e-14 0)
(2.9 -2.57258e-14 0)
(2.9 -1.14561e-14 0)
(2.9 3.77872e-14 0)
(2.9 4.0895e-14 0)
(2.9 3.93428e-14 0)
(2.9 1.74666e-14 0)
(2.9 -5.43465e-14 0)
(2.9 -7.57012e-14 0)
(2.9 -1.8181e-14 0)
(2.9 8.43092e-15 0)
(2.9 5.32285e-14 0)
(2.9 -1.19022e-14 0)
(2.9 -8.01622e-14 0)
(2.9 2.71988e-14 0)
(2.9 3.83381e-14 0)
(2.9 7.15842e-14 0)
(2.9 2.91845e-14 0)
(2.9 5.20702e-14 0)
(2.9 -1.53203e-15 0)
(2.9 1.43582e-14 0)
(2.9 1.72297e-14 0)
(2.9 2.61715e-14 0)
(2.9 2.19291e-14 0)
(2.9 -1.97021e-14 0)
(2.9 -1.88737e-14 0)
(2.9 -3.22691e-14 0)
(2.9 -8.47856e-14 0)
(2.9 -2.7645e-14 0)
(2.9 8.3279e-17 0)
(2.9 -5.96315e-14 0)
(2.9 -3.20962e-14 0)
(2.9 -1.42541e-14 0)
(2.9 -3.17706e-14 0)
(2.9 -2.56971e-14 0)
(2.9 6.80679e-15 0)
(2.9 2.42454e-14 0)
(2.9 -1.40946e-14 0)
(2.9 1.58498e-14 0)
(2.9 4.18006e-14 0)
(2.9 4.81721e-14 0)
(2.9 1.34964e-14 0)
(2.9 2.10804e-14 0)
(2.9 1.75875e-14 0)
(2.9 6.77327e-14 0)
(2.9 -1.59066e-14 0)
(2.9 -4.89301e-14 0)
(2.9 -3.99332e-14 0)
(2.9 -2.03565e-14 0)
(2.9 5.95187e-14 0)
(2.9 1.84428e-14 0)
(2.9 2.53213e-14 0)
(2.9 3.26234e-14 0)
(2.9 -3.54854e-14 0)
(2.9 -3.48888e-14 0)
(2.9 -6.9581e-14 0)
(2.9 -1.30909e-15 0)
(2.9 4.54254e-15 0)
(2.9 2.19309e-14 0)
(2.9 1.65259e-14 0)
(2.9 -1.9244e-14 0)
(2.9 -3.07889e-14 0)
(2.9 8.61601e-15 0)
(2.9 2.92158e-14 0)
(2.9 1.28973e-14 0)
(2.9 -1.08305e-14 0)
(2.9 -4.71742e-14 0)
(2.9 -1.659e-14 0)
(2.9 -2.1601e-14 0)
(2.9 6.81321e-15 0)
(2.9 1.18394e-14 0)
(2.9 4.46937e-14 0)
(2.9 5.6538e-15 0)
(2.9 -8.94543e-15 0)
(2.9 1.79419e-14 0)
(2.9 -1.30625e-14 0)
(2.9 2.70487e-14 0)
(2.9 2.67886e-14 0)
(2.9 1.95366e-14 0)
(2.9 -2.51531e-14 0)
(2.9 -5.10069e-14 0)
(2.9 -3.3178e-14 0)
(2.9 -4.26707e-14 0)
(2.9 -5.26074e-14 0)
(2.9 -4.80613e-14 0)
(2.9 -9.14791e-14 0)
(2.9 -3.01991e-14 0)
(2.9 -7.4752e-14 0)
(2.9 -5.81251e-15 0)
(2.9 -1.19098e-14 0)
(2.9 5.76033e-14 0)
(2.9 -6.5069e-15 0)
(2.9 -4.62846e-14 0)
(2.9 -2.51711e-14 0)
(2.9 -1.13831e-14 0)
(2.9 1.01948e-14 0)
(2.9 9.80788e-15 0)
(2.9 -3.49845e-14 0)
(2.9 -1.6548e-14 0)
(2.9 3.3828e-15 0)
(2.9 1.53891e-14 0)
(2.9 -8.47429e-15 0)
(2.9 2.16454e-14 0)
(2.9 -2.43611e-14 0)
(2.9 -1.50889e-15 0)
(2.9 -2.22382e-14 0)
(2.9 -8.97577e-16 0)
(2.9 -9.3855e-14 0)
(2.9 1.50876e-14 0)
(2.9 9.06914e-14 0)
(2.9 1.96128e-14 0)
(2.9 3.81042e-14 0)
(2.9 8.24267e-14 0)
(2.9 -9.70158e-15 0)
(2.9 -2.46969e-14 0)
(2.9 -5.28746e-14 0)
(2.9 -2.53611e-15 0)
(2.9 -1.59518e-14 0)
(2.9 4.65919e-15 0)
(2.9 1.6345e-14 0)
(2.9 1.04173e-14 0)
(2.9 -6.96255e-15 0)
(2.9 2.95424e-14 0)
(2.9 -1.17328e-14 0)
(2.9 -9.5643e-15 0)
(2.9 -6.79769e-14 0)
(2.9 -6.80868e-14 0)
(2.9 4.31879e-15 0)
(2.9 -1.31428e-14 0)
(2.9 1.96741e-15 0)
(2.9 9.41113e-15 0)
(2.9 3.69446e-14 0)
(2.9 2.05228e-14 0)
(2.9 1.89132e-14 0)
(2.9 1.62023e-14 0)
(2.9 -6.86046e-14 0)
(2.9 2.36679e-14 0)
(2.9 1.19351e-14 0)
(2.9 -1.12263e-14 0)
(2.9 -2.42882e-14 0)
(2.9 -1.077e-13 0)
(2.9 -7.61034e-14 0)
(2.9 -5.63056e-14 0)
(2.9 -9.41001e-14 0)
(2.9 -3.61257e-14 0)
(2.9 -5.59255e-14 0)
(2.9 -6.7101e-15 0)
(2.9 3.02309e-14 0)
(2.9 3.58149e-14 0)
(2.9 1.93137e-14 0)
(2.9 4.28333e-15 0)
(2.9 -3.41249e-14 0)
(2.9 -3.03353e-15 0)
(2.9 -2.73818e-14 0)
(2.9 -1.10205e-14 0)
(2.9 1.74448e-14 0)
(2.9 -3.28147e-14 0)
(2.9 -3.35024e-14 0)
(2.9 -3.20677e-14 0)
(2.9 -5.06946e-14 0)
(2.9 -3.28862e-14 0)
(2.9 9.01758e-15 0)
(2.9 -4.31341e-15 0)
(2.9 -3.17506e-14 0)
(2.9 -2.19471e-14 0)
(2.9 2.55891e-15 0)
(2.9 5.73523e-14 0)
(2.9 -2.85624e-14 0)
(2.9 -3.82775e-15 0)
(2.9 -1.44491e-14 0)
(2.9 3.75369e-14 0)
(2.9 8.07346e-14 0)
(2.9 -1.80225e-14 0)
(2.9 1.72045e-14 0)
(2.9 -6.00805e-15 0)
(2.9 -3.60103e-14 0)
(2.9 -7.05873e-14 0)
(2.9 -5.16203e-14 0)
(2.9 -6.08046e-14 0)
(2.9 -3.90196e-14 0)
(2.9 5.99586e-14 0)
(2.9 4.23887e-14 0)
(2.9 -2.94128e-15 0)
(2.9 -3.03575e-14 0)
(2.9 -6.95462e-14 0)
(2.9 -3.89389e-14 0)
(2.9 -7.33993e-15 0)
(2.9 4.94206e-14 0)
(2.9 -8.07484e-15 0)
(2.9 1.53765e-14 0)
(2.9 2.6833e-14 0)
(2.9 3.5649e-14 0)
(2.9 2.09209e-14 0)
(2.9 7.38312e-14 0)
(2.9 -1.04471e-14 0)
(2.9 1.23285e-14 0)
(2.9 2.30583e-14 0)
(2.9 2.7603e-14 0)
(2.9 7.95548e-15 0)
(2.9 -4.29829e-14 0)
(2.9 -4.12315e-14 0)
(2.9 -1.67432e-14 0)
(2.9 2.61253e-14 0)
(2.9 -6.5396e-15 0)
(2.9 -2.52977e-14 0)
(2.9 -1.66186e-15 0)
(2.9 5.55551e-14 0)
(2.9 6.4812e-14 0)
(2.9 8.1144e-14 0)
(2.9 3.72308e-14 0)
(2.9 -3.81994e-14 0)
(2.9 -3.10187e-14 0)
(2.9 -4.22041e-16 0)
(2.9 -1.93833e-14 0)
(2.9 -4.49157e-14 0)
(2.9 1.37487e-14 0)
(2.9 -1.41642e-14 0)
(2.9 -5.26623e-14 0)
(2.9 -6.11488e-14 0)
(2.9 -5.84362e-14 0)
(2.9 -2.51094e-14 0)
(2.9 -2.13165e-14 0)
(2.9 7.67437e-15 0)
(2.9 -3.07049e-14 0)
(2.9 -2.09352e-14 0)
(2.9 -9.51035e-16 0)
(2.9 5.61596e-14 0)
(2.9 -1.34912e-14 0)
(2.9 -1.52825e-14 0)
(2.9 -3.91071e-14 0)
(2.9 5.31932e-15 0)
(2.9 4.57303e-14 0)
(2.9 -3.44726e-14 0)
(2.9 1.62364e-14 0)
(2.9 1.09646e-14 0)
(2.9 -1.6768e-14 0)
(2.9 -6.12235e-14 0)
(2.9 -5.50143e-14 0)
(2.9 -8.13507e-14 0)
(2.9 -5.53649e-14 0)
(2.9 -2.97516e-14 0)
(2.9 2.83659e-14 0)
(2.9 1.72646e-14 0)
(2.9 -2.73283e-14 0)
(2.9 -9.95234e-14 0)
(2.9 -1.19364e-14 0)
(2.9 5.40646e-14 0)
(2.9 3.44094e-15 0)
(2.9 9.45326e-15 0)
(2.9 4.53533e-14 0)
(2.9 2.00983e-14 0)
(2.9 5.82971e-14 0)
(2.9 2.56978e-14 0)
(2.9 9.42949e-14 0)
(2.9 9.66066e-15 0)
(2.9 8.5229e-15 0)
(2.9 -7.13974e-15 0)
(2.9 3.79397e-14 0)
(2.9 -1.18079e-14 0)
(2.9 -3.49422e-14 0)
(2.9 2.15027e-14 0)
(2.9 1.25625e-14 0)
(2.9 3.60504e-14 0)
(2.9 4.86419e-14 0)
(2.9 9.10113e-15 0)
(2.9 6.62537e-15 0)
(2.9 6.13111e-14 0)
(2.9 7.82425e-14 0)
(2.9 5.27573e-14 0)
(2.9 3.71923e-14 0)
(2.9 2.18845e-14 0)
(2.9 -3.4897e-14 0)
(2.9 -4.24672e-15 0)
(2.9 3.07257e-14 0)
(2.9 -2.04182e-14 0)
(2.9 6.48601e-15 0)
(2.9 4.55827e-14 0)
(2.9 -1.85374e-14 0)
(2.9 -6.85036e-14 0)
(2.9 2.85818e-14 0)
(2.9 -2.48117e-14 0)
(2.9 -5.01143e-14 0)
(2.9 -1.73054e-15 0)
(2.9 -3.40845e-14 0)
(2.9 -3.05369e-14 0)
(2.9 -2.08495e-14 0)
(2.9 1.63766e-14 0)
(2.9 4.20421e-14 0)
(2.9 1.96843e-14 0)
(2.9 1.58894e-14 0)
(2.9 1.73734e-14 0)
(2.9 -8.5252e-15 0)
(2.9 -9.61821e-15 0)
(2.9 3.52892e-14 0)
(2.9 2.63298e-14 0)
(2.9 1.51539e-14 0)
(2.9 -3.24008e-14 0)
(2.9 -8.14747e-14 0)
(2.9 -1.79053e-14 0)
(2.9 -1.91462e-14 0)
(2.9 1.02353e-15 0)
(2.9 2.03703e-14 0)
(2.9 6.04486e-14 0)
(2.9 -1.77731e-14 0)
(2.9 -4.53766e-14 0)
(2.9 -1.047e-14 0)
(2.9 1.89208e-14 0)
(2.9 -2.27346e-14 0)
(2.9 -1.68247e-14 0)
(2.9 -9.97649e-15 0)
(2.9 -4.63508e-15 0)
(2.9 2.2332e-15 0)
(2.9 1.47702e-14 0)
(2.9 4.05097e-14 0)
(2.9 3.20641e-14 0)
(2.9 -6.80223e-16 0)
(2.9 -4.26156e-14 0)
(2.9 6.9955e-14 0)
(2.9 -2.30519e-14 0)
(2.9 1.12153e-14 0)
(2.9 5.37395e-14 0)
(2.9 3.21028e-14 0)
(2.9 1.6326e-14 0)
(2.9 2.08207e-14 0)
(2.9 4.42348e-14 0)
(2.9 2.20128e-14 0)
(2.9 2.31358e-14 0)
(2.9 3.78709e-14 0)
(2.9 1.06186e-14 0)
(2.9 1.91046e-14 0)
(2.9 4.2386e-14 0)
(2.9 -1.65841e-14 0)
(2.9 -1.26671e-14 0)
(2.9 3.09926e-14 0)
(2.9 5.12332e-14 0)
(2.9 -9.77595e-15 0)
(2.9 5.18158e-14 0)
(2.9 -1.30942e-15 0)
(2.9 -3.18952e-14 0)
(2.9 4.01853e-14 0)
(2.9 -3.54836e-14 0)
(2.9 -3.49697e-14 0)
(2.9 -4.71435e-14 0)
(2.9 -1.34601e-14 0)
(2.9 3.52728e-15 0)
(2.9 -7.14144e-14 0)
(2.9 -1.4959e-14 0)
(2.9 8.15027e-14 0)
(2.9 1.72449e-14 0)
(2.9 -2.44104e-14 0)
(2.9 -2.11142e-14 0)
(2.9 1.52559e-14 0)
(2.9 6.11997e-14 0)
(2.9 5.36524e-14 0)
(2.9 -1.80171e-14 0)
(2.9 1.59796e-14 0)
(2.9 2.91579e-14 0)
(2.9 4.78671e-15 0)
(2.9 3.6244e-14 0)
(2.9 2.21117e-14 0)
(2.9 5.3693e-14 0)
(2.9 -8.78072e-16 0)
(2.9 2.75795e-14 0)
(2.9 7.289e-14 0)
(2.9 -6.87989e-15 0)
(2.9 -4.22846e-14 0)
(2.9 1.43435e-14 0)
(2.9 -1.99612e-14 0)
(2.9 3.76521e-14 0)
(2.9 -3.92398e-14 0)
(2.9 -2.58358e-14 0)
(2.9 -3.48972e-14 0)
(2.9 7.05799e-14 0)
(2.9 -2.13375e-14 0)
(2.9 2.48646e-15 0)
(2.9 -2.94843e-14 0)
(2.9 -1.13426e-13 0)
(2.9 -1.28644e-14 0)
(2.9 -1.0633e-14 0)
(2.9 -1.32386e-14 0)
(2.9 2.30562e-14 0)
(2.9 3.23262e-14 0)
(2.9 -7.12076e-15 0)
(2.9 2.40543e-14 0)
(2.9 -1.87892e-14 0)
(2.9 5.20864e-14 0)
(2.9 -2.52785e-14 0)
(2.9 -2.05419e-14 0)
(2.9 1.94567e-15 0)
(2.9 -1.96354e-14 0)
(2.9 2.86535e-14 0)
(2.9 -2.53419e-14 0)
(2.9 -1.60376e-14 0)
(2.9 2.31411e-14 0)
(2.9 6.58232e-14 0)
(2.9 -1.432e-14 0)
(2.9 -3.51285e-15 0)
(2.9 6.84715e-16 0)
(2.9 2.42683e-15 0)
(2.9 2.14183e-14 0)
(2.9 -1.62219e-14 0)
(2.9 -3.66434e-14 0)
(2.9 -9.36596e-14 0)
(2.9 3.36672e-14 0)
(2.9 5.07943e-14 0)
(2.9 -1.87917e-14 0)
(2.9 6.13962e-15 0)
(2.9 2.25057e-14 0)
(2.9 -1.62798e-14 0)
(2.9 -2.60737e-14 0)
(2.9 -3.46299e-14 0)
(2.9 2.4182e-14 0)
(2.9 6.2809e-14 0)
(2.9 1.91394e-14 0)
(2.9 -6.49807e-14 0)
(2.9 2.98179e-14 0)
(2.9 3.85013e-14 0)
(2.9 2.8988e-14 0)
(2.9 -1.52588e-15 0)
(2.9 6.46014e-15 0)
(2.9 2.61027e-14 0)
(2.9 -5.22374e-14 0)
(2.9 -4.99573e-14 0)
(2.9 8.63274e-15 0)
(2.9 3.06875e-14 0)
(2.9 -1.70158e-14 0)
(2.9 -2.67076e-14 0)
(2.9 -1.69621e-14 0)
(2.9 2.11329e-14 0)
(2.9 -5.34147e-14 0)
(2.9 -2.04074e-16 0)
(2.9 -3.08246e-14 0)
(2.9 1.3007e-14 0)
(2.9 -4.43223e-14 0)
(2.9 -3.1899e-14 0)
(2.9 2.15616e-15 0)
(2.9 -7.45643e-14 0)
(2.9 -6.88483e-14 0)
(2.9 -2.04404e-14 0)
(2.9 8.94306e-15 0)
(2.9 8.83543e-15 0)
(2.9 -8.09471e-15 0)
(2.9 1.00565e-14 0)
(2.9 -6.22034e-15 0)
(2.9 -1.65457e-14 0)
(2.9 5.90127e-14 0)
(2.9 -2.36977e-14 0)
(2.9 1.88409e-15 0)
(2.9 -2.62119e-14 0)
(2.9 -3.9565e-15 0)
(2.9 -1.97313e-14 0)
(2.9 -2.71244e-15 0)
(2.9 -1.19492e-14 0)
(2.9 -3.37056e-14 0)
(2.9 1.22356e-14 0)
(2.9 -5.38937e-14 0)
(2.9 -2.41965e-14 0)
(2.9 3.92236e-15 0)
(2.9 2.01298e-14 0)
(2.9 -2.28551e-14 0)
(2.9 -1.29358e-14 0)
(2.9 -2.04097e-14 0)
(2.9 -4.73284e-14 0)
(2.9 3.45352e-14 0)
(2.9 2.28663e-14 0)
(2.9 6.48591e-14 0)
(2.9 2.2192e-14 0)
(2.9 -2.92416e-14 0)
(2.9 2.54406e-14 0)
(2.9 -1.43938e-14 0)
(2.9 1.34811e-14 0)
(2.9 5.111e-15 0)
(2.9 1.37059e-15 0)
(2.9 -1.62583e-14 0)
(2.9 -1.30642e-14 0)
(2.9 3.52385e-14 0)
(2.9 -1.76632e-15 0)
(2.9 -3.18181e-14 0)
(2.9 -1.23248e-14 0)
(2.9 -1.88691e-14 0)
(2.9 -6.3493e-14 0)
(2.9 -1.751e-14 0)
(2.9 -1.99066e-14 0)
(2.9 -3.92188e-14 0)
(2.9 5.83051e-14 0)
(2.9 5.22217e-15 0)
(2.9 -1.12822e-14 0)
(2.9 -4.83442e-15 0)
(2.9 -2.63564e-14 0)
(2.9 -4.26767e-14 0)
(2.9 2.96157e-14 0)
(2.9 -2.2413e-14 0)
(2.9 -4.64312e-14 0)
(2.9 -4.22463e-14 0)
(2.9 1.93032e-14 0)
(2.9 2.97919e-16 0)
(2.9 8.14149e-15 0)
(2.9 -5.29043e-14 0)
(2.9 2.65106e-15 0)
(2.9 2.4024e-14 0)
(2.9 8.65198e-15 0)
(2.9 -2.73507e-14 0)
(2.9 1.35395e-14 0)
(2.9 -2.44959e-15 0)
(2.9 2.48426e-14 0)
(2.9 4.70522e-14 0)
(2.9 4.14021e-15 0)
(2.9 -8.85203e-15 0)
(2.9 -2.15531e-14 0)
(2.9 -2.11138e-14 0)
(2.9 1.30428e-14 0)
(2.9 9.43623e-15 0)
(2.9 -4.55634e-14 0)
(2.9 -3.1608e-14 0)
(2.9 -1.31048e-14 0)
(2.9 -5.56859e-14 0)
(2.9 -2.66877e-14 0)
(2.9 2.88963e-14 0)
(2.9 2.53762e-14 0)
(2.9 2.3094e-14 0)
(2.9 -9.48156e-15 0)
(2.9 -3.99144e-14 0)
(2.9 8.6545e-15 0)
(2.9 3.49728e-14 0)
(2.9 -6.61094e-15 0)
(2.9 1.36656e-14 0)
(2.9 -1.99916e-14 0)
(2.9 -5.99893e-14 0)
(2.9 3.10239e-14 0)
(2.9 -3.5506e-14 0)
(2.9 -2.19816e-14 0)
(2.9 1.05262e-14 0)
(2.9 -5.53951e-14 0)
(2.9 -1.26648e-14 0)
(2.9 2.41993e-14 0)
(2.9 5.14266e-14 0)
(2.9 -3.27719e-14 0)
(2.9 3.697e-14 0)
(2.9 1.21151e-14 0)
(2.9 -7.30261e-14 0)
(2.9 -7.77285e-14 0)
(2.9 1.17955e-14 0)
(2.9 4.03447e-14 0)
(2.9 -1.6654e-14 0)
(2.9 3.28154e-14 0)
(2.9 4.74967e-14 0)
(2.9 4.4356e-14 0)
(2.9 1.29937e-14 0)
(2.9 -3.55188e-14 0)
(2.9 1.93682e-14 0)
(2.9 -1.1468e-14 0)
(2.9 -4.50286e-14 0)
(2.9 -1.61814e-13 0)
(2.9 -4.80242e-14 0)
(2.9 2.416e-14 0)
(2.9 -3.03221e-14 0)
(2.9 -6.27389e-16 0)
(2.9 -2.56494e-14 0)
(2.9 4.42918e-14 0)
(2.9 2.61438e-14 0)
(2.9 3.30924e-14 0)
(2.9 -3.20992e-15 0)
(2.9 -3.49068e-14 0)
(2.9 9.07467e-15 0)
(2.9 4.84848e-14 0)
(2.9 7.73383e-14 0)
(2.9 1.99725e-14 0)
(2.9 1.79194e-14 0)
(2.9 -3.69996e-14 0)
(2.9 1.09383e-14 0)
(2.9 7.4966e-14 0)
(2.9 5.68813e-14 0)
(2.9 -9.55248e-16 0)
(2.9 9.11562e-15 0)
(2.9 -2.25115e-14 0)
(2.9 1.45878e-14 0)
(2.9 1.67727e-14 0)
(2.9 1.66193e-15 0)
(2.9 5.53525e-14 0)
(2.9 6.7104e-14 0)
(2.9 -3.49541e-14 0)
(2.9 2.50001e-15 0)
(2.9 8.08838e-14 0)
(2.9 4.88064e-14 0)
(2.9 5.06974e-14 0)
(2.9 -7.56553e-14 0)
(2.9 -6.5171e-14 0)
(2.9 -2.70511e-14 0)
(2.9 1.23465e-14 0)
(2.9 -1.80159e-15 0)
(2.9 -3.68626e-14 0)
(2.9 -2.11581e-14 0)
(2.9 -1.26314e-14 0)
(2.9 9.11448e-15 0)
(2.9 9.14477e-14 0)
(2.9 5.85615e-14 0)
(2.9 -7.12733e-15 0)
(2.9 4.07868e-14 0)
(2.9 -2.84993e-15 0)
(2.9 -3.29284e-14 0)
(2.9 -1.55281e-15 0)
(2.9 4.77772e-14 0)
(2.9 6.13566e-14 0)
(2.9 5.06616e-15 0)
(2.9 3.59998e-14 0)
(2.9 4.02132e-14 0)
(2.9 5.56784e-14 0)
(2.9 -7.95764e-16 0)
(2.9 1.15269e-14 0)
(2.9 3.96678e-14 0)
(2.9 -6.30344e-15 0)
(2.9 -4.32474e-14 0)
(2.9 -9.36037e-14 0)
(2.9 -2.39083e-14 0)
(2.9 -2.40072e-14 0)
(2.9 -4.10013e-14 0)
(2.9 -4.71736e-14 0)
(2.9 -6.69176e-15 0)
(2.9 5.27917e-14 0)
(2.9 3.59961e-14 0)
(2.9 4.06241e-14 0)
(2.9 1.97939e-14 0)
(2.9 -6.62931e-14 0)
(2.9 2.43007e-14 0)
(2.9 -1.87745e-15 0)
(2.9 4.89871e-14 0)
(2.9 4.29108e-14 0)
(2.9 1.20018e-14 0)
(2.9 -2.24456e-14 0)
(2.9 -2.2781e-14 0)
(2.9 -1.22479e-14 0)
(2.9 5.34865e-14 0)
(2.9 -4.19101e-15 0)
(2.9 1.75482e-14 0)
(2.9 -6.72396e-14 0)
(2.9 -2.58756e-14 0)
(2.9 4.0931e-15 0)
(2.9 1.25416e-14 0)
(2.9 2.95991e-14 0)
(2.9 5.64933e-15 0)
(2.9 8.96138e-15 0)
(2.9 5.7302e-14 0)
(2.9 6.30544e-14 0)
(2.9 1.31819e-14 0)
(2.9 4.06653e-14 0)
(2.9 -8.80934e-15 0)
(2.9 -4.76086e-14 0)
(2.9 -1.30349e-14 0)
(2.9 9.85167e-15 0)
(2.9 6.36607e-14 0)
(2.9 2.4294e-14 0)
(2.9 -3.86688e-14 0)
(2.9 8.97809e-15 0)
(2.9 -3.43738e-15 0)
(2.9 4.77705e-14 0)
(2.9 1.0807e-14 0)
(2.9 1.76893e-14 0)
(2.9 1.36143e-14 0)
(2.9 2.98482e-14 0)
(2.9 4.19796e-14 0)
(2.9 3.12472e-14 0)
(2.9 2.44653e-14 0)
(2.9 2.71875e-14 0)
(2.9 2.1015e-14 0)
(2.9 4.3452e-14 0)
(2.9 5.0585e-14 0)
(2.9 4.04456e-15 0)
(2.9 3.40145e-14 0)
(2.9 3.22114e-14 0)
(2.9 -1.66045e-16 0)
(2.9 1.10501e-14 0)
(2.9 3.96064e-14 0)
(2.9 2.72216e-14 0)
(2.9 1.53792e-14 0)
(2.9 4.225e-15 0)
(2.9 2.96181e-14 0)
(2.9 4.10255e-14 0)
(2.9 2.96548e-14 0)
(2.9 7.5472e-15 0)
(2.9 5.78705e-14 0)
(2.9 -1.38717e-14 0)
(2.9 1.76481e-14 0)
(2.9 -5.91923e-15 0)
(2.9 -1.87197e-14 0)
(2.9 -1.52785e-14 0)
(2.9 -3.87481e-14 0)
(2.9 3.29586e-14 0)
(2.9 -2.42112e-14 0)
(2.9 2.21343e-15 0)
(2.9 -3.63782e-14 0)
(2.9 -6.87746e-14 0)
(2.9 -6.67202e-15 0)
(2.9 -7.48253e-14 0)
(2.9 -4.84302e-15 0)
(2.9 -4.73367e-14 0)
(2.9 -1.89816e-14 0)
(2.9 -4.32334e-14 0)
(2.9 7.16077e-14 0)
(2.9 1.19012e-14 0)
(2.9 -7.8129e-14 0)
(2.9 3.93396e-14 0)
(2.9 9.49019e-14 0)
(2.9 3.70869e-14 0)
(2.9 -2.73465e-14 0)
(2.9 -5.7703e-16 0)
(2.9 5.03976e-14 0)
(2.9 -5.78293e-14 0)
(2.9 2.68277e-14 0)
(2.9 -6.08197e-15 0)
(2.9 3.91361e-14 0)
(2.9 2.78524e-14 0)
(2.9 -1.08613e-14 0)
(2.9 -1.83595e-14 0)
(2.9 -5.14282e-14 0)
(2.9 -6.15135e-14 0)
(2.9 -1.38776e-15 0)
(2.9 7.16382e-14 0)
(2.9 1.48273e-14 0)
(2.9 1.06204e-13 0)
(2.9 1.38182e-13 0)
(2.9 3.1444e-14 0)
(2.9 -3.43702e-14 0)
(2.9 7.8635e-16 0)
(2.9 1.11083e-13 0)
(2.9 3.21313e-14 0)
(2.9 -6.69705e-16 0)
(2.9 -3.45967e-14 0)
(2.9 3.29501e-14 0)
(2.9 4.52765e-14 0)
(2.9 -1.75963e-14 0)
(2.9 9.38029e-15 0)
(2.9 6.17574e-14 0)
(2.9 1.50677e-13 0)
(2.9 9.06538e-14 0)
(2.9 2.82377e-14 0)
(2.9 7.95485e-14 0)
(2.9 1.2261e-13 0)
(2.9 5.13254e-14 0)
(2.9 -3.46461e-14 0)
(2.9 5.5612e-14 0)
(2.9 -2.9812e-14 0)
(2.9 -4.24607e-14 0)
(2.9 3.63461e-14 0)
(2.9 -1.90431e-14 0)
(2.9 2.89975e-14 0)
(2.9 -1.09101e-13 0)
(2.9 -3.37056e-15 0)
(2.9 -3.43781e-14 0)
(2.9 4.99209e-14 0)
(2.9 2.95477e-14 0)
(2.9 -3.72588e-16 0)
(2.9 -3.9833e-14 0)
(2.9 -3.8468e-14 0)
(2.9 -2.22486e-14 0)
(2.9 4.14537e-14 0)
(2.9 7.15506e-14 0)
(2.9 -2.18711e-14 0)
(2.9 2.51005e-14 0)
(2.9 -4.7208e-14 0)
(2.9 -6.55693e-14 0)
(2.9 1.99919e-14 0)
(2.9 3.6888e-14 0)
(2.9 5.4586e-14 0)
(2.9 -1.99209e-14 0)
(2.9 -9.71486e-14 0)
(2.9 -1.87835e-14 0)
(2.9 -1.28178e-14 0)
(2.9 9.34018e-15 0)
(2.9 -5.95052e-14 0)
(2.9 -1.21642e-14 0)
(2.9 1.02205e-14 0)
(2.9 2.05501e-14 0)
(2.9 3.65305e-14 0)
(2.9 7.2198e-14 0)
(2.9 5.02548e-15 0)
(2.9 -1.44015e-14 0)
(2.9 1.29943e-14 0)
(2.9 1.21235e-14 0)
(2.9 3.86416e-14 0)
(2.9 5.56532e-14 0)
(2.9 2.87225e-14 0)
(2.9 -3.40371e-14 0)
(2.9 2.28352e-15 0)
(2.9 5.02085e-14 0)
(2.9 1.56635e-14 0)
(2.9 -3.10363e-15 0)
(2.9 -2.10844e-14 0)
(2.9 1.04677e-14 0)
(2.9 4.76069e-14 0)
(2.9 2.09924e-14 0)
(2.9 2.06571e-14 0)
(2.9 4.52899e-14 0)
(2.9 1.03034e-13 0)
(2.9 7.17563e-14 0)
(2.9 3.30865e-14 0)
(2.9 5.2515e-14 0)
(2.9 7.27772e-14 0)
(2.9 2.75573e-14 0)
(2.9 8.12271e-15 0)
(2.9 4.43561e-14 0)
(2.9 -3.13118e-14 0)
(2.9 -5.30532e-14 0)
(2.9 3.19866e-14 0)
(2.9 -1.13897e-14 0)
(2.9 -1.00874e-14 0)
(2.9 -3.47112e-14 0)
(2.9 4.8802e-15 0)
(2.9 1.30936e-14 0)
(2.9 4.38947e-14 0)
(2.9 3.23433e-14 0)
(2.9 1.4176e-15 0)
(2.9 1.47837e-14 0)
(2.9 -2.11188e-15 0)
(2.9 1.92663e-14 0)
(2.9 2.76862e-14 0)
(2.9 1.01724e-14 0)
(2.9 2.39262e-14 0)
(2.9 2.95339e-14 0)
(2.9 6.19458e-15 0)
(2.9 -2.50236e-14 0)
(2.9 6.54802e-15 0)
(2.9 -1.13875e-14 0)
(2.9 1.89053e-14 0)
(2.9 -4.1034e-14 0)
(2.9 -4.8071e-14 0)
(2.9 -5.62122e-14 0)
(2.9 2.69408e-14 0)
(2.9 -6.21383e-15 0)
(2.9 -7.95437e-14 0)
(2.9 -4.00365e-14 0)
(2.9 -4.80495e-15 0)
(2.9 2.81706e-14 0)
(2.9 2.68024e-14 0)
(2.9 6.5318e-14 0)
(2.9 2.21723e-14 0)
(2.9 -3.21177e-14 0)
(2.9 -1.70187e-14 0)
(2.9 -3.26902e-14 0)
(2.9 -5.43667e-14 0)
(2.9 -3.43357e-14 0)
(2.9 -5.3846e-15 0)
(2.9 2.73477e-14 0)
(2.9 8.28462e-15 0)
(2.9 -3.02712e-14 0)
(2.9 3.72406e-14 0)
(2.9 2.69101e-14 0)
(2.9 -2.56465e-14 0)
(2.9 1.68614e-14 0)
(2.9 3.61162e-14 0)
(2.9 7.26615e-14 0)
(2.9 6.38593e-14 0)
(2.9 -1.58902e-15 0)
(2.9 -5.36097e-14 0)
(2.9 3.6834e-15 0)
(2.9 1.56879e-14 0)
(2.9 5.81871e-14 0)
(2.9 2.08459e-14 0)
(2.9 8.60313e-16 0)
(2.9 1.46823e-14 0)
(2.9 4.82568e-14 0)
(2.9 1.23394e-14 0)
(2.9 1.56315e-14 0)
(2.9 -8.79527e-15 0)
(2.9 3.19727e-14 0)
(2.9 8.45229e-15 0)
(2.9 5.20892e-15 0)
(2.9 -9.90076e-15 0)
(2.9 6.95255e-14 0)
(2.9 -8.35147e-15 0)
(2.9 -1.76036e-14 0)
(2.9 9.52403e-15 0)
(2.9 -9.42006e-15 0)
(2.9 2.96306e-14 0)
(2.9 6.35114e-16 0)
(2.9 4.37825e-14 0)
(2.9 -1.6501e-14 0)
(2.9 6.1467e-14 0)
(2.9 5.16388e-14 0)
(2.9 7.90127e-14 0)
(2.9 7.01123e-14 0)
(2.9 6.09406e-14 0)
(2.9 4.64008e-15 0)
(2.9 1.4524e-14 0)
(2.9 -3.25981e-14 0)
(2.9 -9.89027e-15 0)
(2.9 -5.3392e-14 0)
(2.9 -4.32119e-14 0)
(2.9 -5.60719e-14 0)
(2.9 -6.84536e-14 0)
(2.9 -2.44001e-14 0)
(2.9 -5.36799e-14 0)
(2.9 -4.57882e-15 0)
(2.9 -3.91759e-14 0)
(2.9 1.08194e-14 0)
(2.9 1.92872e-14 0)
(2.9 -1.06043e-14 0)
(2.9 2.05616e-14 0)
(2.9 3.26944e-14 0)
(2.9 -2.88208e-14 0)
(2.9 -3.96099e-14 0)
(2.9 -1.79865e-14 0)
(2.9 5.205e-14 0)
(2.9 -8.05622e-15 0)
(2.9 -9.38995e-14 0)
(2.9 3.25465e-14 0)
(2.9 7.93294e-14 0)
(2.9 -1.92895e-14 0)
(2.9 -8.17551e-15 0)
(2.9 3.60619e-15 0)
(2.9 9.56682e-15 0)
(2.9 7.62353e-14 0)
(2.9 -3.78028e-14 0)
(2.9 -1.03185e-13 0)
(2.9 -4.12804e-14 0)
(2.9 -3.15904e-16 0)
(2.9 7.83225e-15 0)
(2.9 7.36983e-14 0)
(2.9 7.22578e-15 0)
(2.9 -2.71383e-14 0)
(2.9 -3.03734e-14 0)
(2.9 1.46323e-14 0)
(2.9 5.45716e-15 0)
(2.9 -1.90099e-14 0)
(2.9 2.23923e-14 0)
(2.9 5.42527e-14 0)
(2.9 5.90664e-14 0)
(2.9 -3.16834e-14 0)
(2.9 1.3281e-14 0)
(2.9 -1.57125e-14 0)
(2.9 -1.0982e-14 0)
(2.9 -5.51322e-16 0)
(2.9 -5.20937e-14 0)
(2.9 5.93219e-14 0)
(2.9 1.74994e-14 0)
(2.9 7.96273e-14 0)
(2.9 6.23468e-14 0)
(2.9 4.20105e-14 0)
(2.9 8.23643e-14 0)
(2.9 2.74626e-14 0)
(2.9 5.801e-14 0)
(2.9 1.38042e-13 0)
(2.9 1.21795e-13 0)
(2.9 2.90772e-14 0)
(2.9 -3.18948e-14 0)
(2.9 -2.21374e-14 0)
(2.9 -6.00086e-14 0)
(2.9 -3.76718e-14 0)
(2.9 -6.06117e-15 0)
(2.9 -3.40274e-15 0)
(2.9 -5.95233e-14 0)
(2.9 -2.4765e-14 0)
(2.9 8.72783e-16 0)
(2.9 3.0605e-15 0)
(2.9 -2.7761e-14 0)
(2.9 2.74784e-14 0)
(2.9 3.91704e-14 0)
(2.9 4.01893e-14 0)
(2.9 3.06028e-14 0)
(2.9 -2.91808e-14 0)
(2.9 5.83698e-15 0)
(2.9 -3.46657e-15 0)
(2.9 1.30739e-14 0)
(2.9 -2.84101e-17 0)
(2.9 -3.63018e-14 0)
(2.9 -7.04526e-15 0)
(2.9 4.6104e-14 0)
(2.9 3.29979e-14 0)
(2.9 -3.17622e-14 0)
(2.9 -2.715e-15 0)
(2.9 -1.02609e-14 0)
(2.9 -1.17398e-14 0)
(2.9 -3.53219e-14 0)
(2.9 -7.60204e-14 0)
(2.9 -4.57053e-14 0)
(2.9 -1.02307e-14 0)
(2.9 -4.15612e-15 0)
(2.9 -7.99284e-15 0)
(2.9 1.00303e-14 0)
(2.9 -7.16904e-15 0)
(2.9 -5.7606e-14 0)
(2.9 2.6637e-14 0)
(2.9 4.7476e-14 0)
(2.9 2.4121e-14 0)
(2.9 1.42358e-14 0)
(2.9 5.15916e-14 0)
(2.9 -1.30765e-14 0)
(2.9 -4.89966e-14 0)
(2.9 -2.53394e-14 0)
(2.9 -1.58947e-15 0)
(2.9 2.85395e-14 0)
(2.9 -2.07343e-14 0)
(2.9 -2.40514e-14 0)
(2.9 2.92792e-14 0)
(2.9 -8.00103e-15 0)
(2.9 -6.6449e-15 0)
(2.9 4.98489e-14 0)
(2.9 5.91464e-14 0)
(2.9 2.43347e-14 0)
(2.9 5.39477e-15 0)
(2.9 3.23472e-15 0)
(2.9 3.19967e-14 0)
(2.9 1.99101e-14 0)
(2.9 1.96754e-14 0)
(2.9 1.56965e-14 0)
(2.9 5.18789e-14 0)
(2.9 -2.76907e-14 0)
(2.9 -1.61652e-14 0)
(2.9 5.65729e-14 0)
(2.9 2.19469e-14 0)
(2.9 -4.83253e-14 0)
(2.9 -3.54466e-14 0)
(2.9 -3.61647e-14 0)
(2.9 -3.05037e-15 0)
(2.9 -2.92926e-14 0)
(2.9 4.92352e-14 0)
(2.9 2.98669e-15 0)
(2.9 5.25303e-15 0)
(2.9 -2.41021e-14 0)
(2.9 -4.09432e-14 0)
(2.9 3.82368e-14 0)
(2.9 2.55405e-14 0)
(2.9 1.42031e-14 0)
(2.9 6.15259e-16 0)
(2.9 -7.0438e-15 0)
(2.9 -4.57575e-14 0)
(2.9 3.99488e-14 0)
(2.9 7.97441e-15 0)
(2.9 -1.52298e-14 0)
(2.9 -3.74482e-14 0)
(2.9 1.20014e-14 0)
(2.9 -4.84391e-14 0)
(2.9 -4.12101e-14 0)
(2.9 -1.81521e-14 0)
(2.9 -1.15038e-14 0)
(2.9 -2.37563e-14 0)
(2.9 -2.76758e-15 0)
(2.9 -5.20475e-14 0)
(2.9 1.82018e-14 0)
(2.9 1.69687e-14 0)
(2.9 -5.66839e-14 0)
(2.9 3.14295e-14 0)
(2.9 8.45397e-14 0)
(2.9 4.8857e-14 0)
(2.9 2.07226e-14 0)
(2.9 -9.09523e-15 0)
(2.9 -3.62301e-14 0)
(2.9 -3.04884e-14 0)
(2.9 -8.16182e-15 0)
(2.9 -2.44427e-14 0)
(2.9 6.49849e-15 0)
(2.9 -2.91607e-14 0)
(2.9 1.2177e-14 0)
(2.9 -1.91754e-14 0)
(2.9 -3.26451e-14 0)
(2.9 -2.29144e-14 0)
(2.9 -1.30256e-14 0)
(2.9 -2.54747e-15 0)
(2.9 -1.59163e-14 0)
(2.9 -1.36878e-14 0)
(2.9 -4.92051e-14 0)
(2.9 -6.45517e-14 0)
(2.9 -6.45091e-14 0)
(2.9 -4.28972e-14 0)
(2.9 7.05093e-14 0)
(2.9 8.28265e-14 0)
(2.9 3.02081e-14 0)
(2.9 3.7175e-14 0)
(2.9 5.22988e-14 0)
(2.9 7.86188e-14 0)
(2.9 2.73074e-14 0)
(2.9 2.39328e-14 0)
(2.9 -5.09213e-14 0)
(2.9 -2.87144e-14 0)
(2.9 -5.59197e-14 0)
(2.9 6.16506e-16 0)
(2.9 -5.71271e-14 0)
(2.9 -4.01084e-14 0)
(2.9 -8.97867e-14 0)
(2.9 2.92994e-15 0)
(2.9 5.14476e-14 0)
(2.9 4.82622e-14 0)
(2.9 -1.77714e-14 0)
(2.9 -2.32273e-14 0)
(2.9 -2.43458e-14 0)
(2.9 -4.73553e-15 0)
(2.9 1.71859e-15 0)
(2.9 3.54629e-14 0)
(2.9 -2.04388e-14 0)
(2.9 -5.2851e-14 0)
(2.9 -2.75815e-14 0)
(2.9 -3.02564e-14 0)
(2.9 -4.28977e-14 0)
(2.9 1.51836e-14 0)
(2.9 4.58799e-14 0)
(2.9 -4.11167e-14 0)
(2.9 6.72001e-15 0)
(2.9 -1.47052e-14 0)
(2.9 -2.38197e-14 0)
(2.9 -4.24824e-15 0)
(2.9 -9.99708e-15 0)
(2.9 3.38073e-14 0)
(2.9 5.45334e-14 0)
(2.9 2.17412e-14 0)
(2.9 4.85052e-14 0)
(2.9 -1.11449e-14 0)
(2.9 -2.53504e-14 0)
(2.9 2.44425e-14 0)
(2.9 6.79389e-15 0)
(2.9 -5.38442e-14 0)
(2.9 -3.87717e-14 0)
(2.9 -1.27308e-14 0)
(2.9 8.46819e-14 0)
(2.9 -5.51881e-15 0)
(2.9 -2.11523e-15 0)
(2.9 -1.70471e-14 0)
(2.9 -6.52686e-15 0)
(2.9 -2.64113e-14 0)
(2.9 -6.68872e-14 0)
(2.9 3.89935e-15 0)
(2.9 -1.75865e-14 0)
(2.9 -7.59628e-15 0)
(2.9 -5.99104e-14 0)
(2.9 -7.59443e-14 0)
(2.9 2.0825e-14 0)
(2.9 3.51128e-14 0)
(2.9 9.98403e-15 0)
(2.9 2.68108e-14 0)
(2.9 1.99232e-14 0)
(2.9 4.56039e-14 0)
(2.9 5.16335e-14 0)
(2.9 3.41787e-14 0)
(2.9 -3.36912e-14 0)
(2.9 -2.09606e-14 0)
(2.9 -1.69645e-14 0)
(2.9 -3.32677e-14 0)
(2.9 -3.38758e-14 0)
(2.9 -7.01002e-15 0)
(2.9 -2.63666e-14 0)
(2.9 -4.88874e-14 0)
(2.9 -2.99719e-14 0)
(2.9 -1.79077e-14 0)
(2.9 -2.3469e-14 0)
(2.9 -7.83557e-15 0)
(2.9 -4.51057e-14 0)
(2.9 -5.24809e-15 0)
(2.9 2.34723e-17 0)
(2.9 3.8851e-14 0)
(2.9 1.56912e-14 0)
(2.9 -2.69002e-14 0)
(2.9 -7.85687e-14 0)
(2.9 -3.81467e-14 0)
(2.9 -2.38373e-14 0)
(2.9 -9.23172e-16 0)
(2.9 4.65091e-14 0)
(2.9 1.40536e-14 0)
(2.9 6.9026e-15 0)
(2.9 -3.39982e-15 0)
(2.9 -7.74108e-15 0)
(2.9 -1.51696e-14 0)
(2.9 4.85001e-16 0)
(2.9 3.16501e-15 0)
(2.9 -1.38908e-14 0)
(2.9 2.99879e-15 0)
(2.9 -4.96954e-15 0)
(2.9 -1.44139e-14 0)
(2.9 -8.08047e-15 0)
(2.9 2.12898e-14 0)
(2.9 1.59165e-14 0)
(2.9 -9.58667e-15 0)
(2.9 -5.37163e-14 0)