/*--------------------------------*- C++ -*----------------------------------*\
| =========                 |                                                 |
| \\      /  F ield         | OpenFOAM: The Open Source CFD Toolbox           |
|  \\    /   O peration     | Version:  2412                                  |
|   \\  /    A nd           | Website:  www.openfoam.com                      |
|    \\/     M anipulation  |                                                 |
\*---------------------------------------------------------------------------*/
FoamFile
{
    version     2.0;
    format      ascii;
    arch        "LSB;label=32;scalar=64";
    class       volVectorField;
    location    "0.0330003";
    object      U;
}
// * * * * * * * * * * * * * * * * * * * * * * * * * * * * * * * * * * * * * //

dimensions      [0 1 -1 0 0 0 0];

internalField   nonuniform List<vector> 
100
(
(2.02408 0 0)
(6.16967 0 0)
(10.2218 0 0)
(14.4058 0 0)
(18.393 0 0)
(22.6619 0 0)
(26.5173 0 0)
(30.923 0 0)
(34.6812 0 0)
(39.1439 0 0)
(42.9294 0 0)
(47.2885 0 0)
(51.3288 0 0)
(55.4497 0 0)
(59.7549 0 0)
(63.6654 0 0)
(68.0797 0 0)
(71.9141 0 0)
(76.3433 0 0)
(80.2151 0 0)
(84.5793 0 0)
(88.5178 0 0)
(92.7739 0 0)
(96.7784 0 0)
(100.987 0 0)
(105.072 0 0)
(109.266 0 0)
(113.389 0 0)
(117.548 0 0)
(121.664 0 0)
(125.79 0 0)
(129.903 0 0)
(134.025 0 0)
(138.135 0 0)
(142.257 0 0)
(146.339 0 0)
(150.421 0 0)
(154.381 0 0)
(158.326 0 0)
(162.341 0 0)
(166.143 0 0)
(169.877 0 0)
(173.491 0 0)
(176.635 0 0)
(179.234 0 0)
(181.335 0 0)
(183.276 0 0)
(184.098 0 0)
(78.2148 0 0)
(-85.1332 0 0)
(-107.075 0 0)
(-94.7982 0 0)
(-85.2478 0 0)
(-80.7649 0 0)
(-76.1389 0 0)
(-72.8448 0 0)
(-71.4133 0 0)
(-71.8533 0 0)
(-71.7437 0 0)
(-70.2319 0 0)
(-66.2328 0 0)
(-59.841 0 0)
(-57.7968 0 0)
(-52.8821 0 0)
(-52.985 0 0)
(-51.635 0 0)
(-51.7869 0 0)
(-53.3321 0 0)
(-45.9684 0 0)
(-41.9004 0 0)
(-29.6741 0 0)
(-27.6153 0 0)
(-26.5814 0 0)
(-29.0913 0 0)
(-32.0297 0 0)
(-24.4268 0 0)
(-18.0236 0 0)
(-2.11554 0 0)
(7.98944 0 0)
(9.04102 0 0)
(7.57463 0 0)
(3.68139 0 0)
(0.713265 0 0)
(0.652919 0 0)
(1.98558 0 0)
(1.38787 0 0)
(-0.23808 0 0)
(-1.82982 0 0)
(-2.20156 0 0)
(-0.257195 0 0)
(0.885352 0 0)
(1.33644 0 0)
(-0.88973 0 0)
(-3.08047 0 0)
(-4.0416 0 0)
(-2.68004 0 0)
(1.36681 0 0)
(4.10036 0 0)
(5.53331 0 0)
(1.77228 0 0)
)
;

boundaryField
{
    sides
    {
        type            fixedValue;
        value           uniform (0 0 0);
    }
    empty
    {
        type            empty;
    }
}


// ************************************************************************* //
