/*--------------------------------*- C++ -*----------------------------------*\
| =========                 |                                                 |
| \\      /  F ield         | OpenFOAM: The Open Source CFD Toolbox           |
|  \\    /   O peration     | Version:  2412                                  |
|   \\  /    A nd           | Website:  www.openfoam.com                      |
|    \\/     M anipulation  |                                                 |
\*---------------------------------------------------------------------------*/
FoamFile
{
    version     2.0;
    format      ascii;
    arch        "LSB;label=32;scalar=64";
    class       volScalarField;
    location    "0.0499496";
    object      rhoY_Y_N2;
}
// * * * * * * * * * * * * * * * * * * * * * * * * * * * * * * * * * * * * * //

dimensions      [1 -3 0 0 0 0 0];

internalField   nonuniform List<scalar> 
100
(
1.06824
1.03453
0.981229
0.962128
0.954432
0.973982
0.976291
1.04852
1.03758
0.84007
0.544825
0.525141
0.529825
0.527172
0.510897
0.506826
0.50951
0.516963
0.547285
0.565731
0.570355
0.573089
0.560992
0.531481
0.523524
0.526471
0.530322
0.537762
0.562326
0.582372
0.58838
0.592617
0.592611
0.590481
0.592653
0.596198
0.597993
0.595812
0.596748
0.600757
0.606378
0.617623
0.626725
0.631809
0.63331
0.625831
0.623414
0.627624
0.641657
0.948278
0.769827
0.770131
0.766238
0.756383
0.717554
0.67481
0.658735
0.656154
0.657008
0.657451
0.656525
0.654739
0.656106
0.659874
0.664524
0.670008
0.675754
0.681131
0.684705
0.682209
0.674293
0.666871
0.662942
0.663001
0.665179
0.670608
0.678242
0.684793
0.688966
0.687974
0.676266
0.629729
0.527213
0.387359
0.229328
0.0813619
-0.00663412
-0.0321175
-0.0307511
0.0076542
-0.0140457
-0.00071667
0.000330774
-0.000411304
5.76797e-07
-3.20807e-06
-1.28953e-07
-4.33778e-08
-4.00737e-09
-2.01132e-10
)
;

boundaryField
{
    sides
    {
        type            calculated;
        value           nonuniform List<scalar> 2(0 1.12308);
    }
    empty
    {
        type            empty;
    }
}


// ************************************************************************* //
