/*--------------------------------*- C++ -*----------------------------------*\
| =========                 |                                                 |
| \\      /  F ield         | OpenFOAM: The Open Source CFD Toolbox           |
|  \\    /   O peration     | Version:  2412                                  |
|   \\  /    A nd           | Website:  www.openfoam.com                      |
|    \\/     M anipulation  |                                                 |
\*---------------------------------------------------------------------------*/
FoamFile
{
    version     2.0;
    format      ascii;
    arch        "LSB;label=32;scalar=64";
    class       volScalarField;
    location    "0.0465734";
    object      p;
}
// * * * * * * * * * * * * * * * * * * * * * * * * * * * * * * * * * * * * * //

dimensions      [1 -1 -2 0 0 0 0];

internalField   nonuniform List<scalar> 
100
(
104278
50538.8
40031.7
39139.3
39519.1
37686.9
35360.6
35337.9
35382.8
36057.5
36842.5
39921.2
40749.3
41576.6
41410.3
41412.7
40107.1
40547.7
40572.7
41722.7
42621.7
43494.2
43668.2
43437.3
42388.5
42544.3
42918.6
44200.7
45621.7
46313.2
46619.3
45873.6
44868.2
44964.4
45454.9
47412.1
49990.8
50945.8
51395.9
50782.7
48410.2
47168.2
47303.6
47749.9
48812.1
51003.7
52563
53230.8
53746.9
53783.7
53742.2
54068.6
54453.4
54546.1
54360.4
54651.2
55222.1
56169.3
57243.1
57948.6
58294.7
57686.2
57532.6
57970.9
59627.7
63726.1
66648.4
67518.2
68060.8
66897
63069.4
59959.6
58041.9
58592.5
57811.5
58691
58297.4
58957.7
59717.5
59520.5
61278.9
60701
62279.5
60622.3
60806
59946.6
59969.9
60068.4
60279.6
60921.9
60927.4
61626.8
61198.2
61610.8
60836.8
61280.3
60700.9
61055.1
60828.1
60922.6
)
;

boundaryField
{
    sides
    {
        type            zeroGradient;
    }
    empty
    {
        type            empty;
    }
}


// ************************************************************************* //
