/*--------------------------------*- C++ -*----------------------------------*\
| =========                 |                                                 |
| \\      /  F ield         | OpenFOAM: The Open Source CFD Toolbox           |
|  \\    /   O peration     | Version:  2412                                  |
|   \\  /    A nd           | Website:  www.openfoam.com                      |
|    \\/     M anipulation  |                                                 |
\*---------------------------------------------------------------------------*/
FoamFile
{
    version     2.0;
    format      ascii;
    arch        "LSB;label=32;scalar=64";
    class       volScalarField;
    location    "0.0465734";
    object      rhoY_Y_N2;
}
// * * * * * * * * * * * * * * * * * * * * * * * * * * * * * * * * * * * * * //

dimensions      [1 -3 0 0 0 0 0];

internalField   nonuniform List<scalar> 
100
(
1.10879
0.673813
0.526211
0.523929
0.52509
0.50401
0.480323
0.47874
0.48195
0.485943
0.498844
0.528467
0.541274
0.545288
0.548402
0.543239
0.534193
0.53449
0.5384
0.54631
0.558436
0.563873
0.56753
0.562563
0.553163
0.553854
0.558695
0.571372
0.586716
0.593318
0.596813
0.588683
0.579072
0.580418
0.585583
0.606
0.632101
0.641269
0.646054
0.639956
0.616199
0.605106
0.607518
0.612543
0.623721
0.646404
0.661339
0.667752
0.672535
0.93276
0.72886
0.726671
0.722881
0.718883
0.714078
0.71445
0.717795
0.725425
0.734252
0.739873
0.741795
0.735387
0.733493
0.738213
0.752542
0.792222
0.8161
0.824394
0.828003
0.815971
0.779552
0.747158
0.73357
0.731455
0.732637
0.73234
0.736263
0.740841
0.749345
0.757431
0.765452
0.771105
0.762224
0.70218
0.573874
0.393028
0.182057
0.0199046
-0.0347886
0.00817592
-0.00927533
-0.000880785
0.000352087
-0.000268715
6.12325e-07
-3.03126e-06
-1.28953e-07
-4.33778e-08
-4.00737e-09
-2.01132e-10
)
;

boundaryField
{
    sides
    {
        type            calculated;
        value           nonuniform List<scalar> 2(0 1.12308);
    }
    empty
    {
        type            empty;
    }
}


// ************************************************************************* //
