/*--------------------------------*- C++ -*----------------------------------*\
| =========                 |                                                 |
| \\      /  F ield         | OpenFOAM: The Open Source CFD Toolbox           |
|  \\    /   O peration     | Version:  2412                                  |
|   \\  /    A nd           | Website:  www.openfoam.com                      |
|    \\/     M anipulation  |                                                 |
\*---------------------------------------------------------------------------*/
FoamFile
{
    version     2.0;
    format      ascii;
    arch        "LSB;label=32;scalar=64";
    class       surfaceScalarField;
    location    "0.0166285";
    object      phiRhoY_Y_N2;
}
// * * * * * * * * * * * * * * * * * * * * * * * * * * * * * * * * * * * * * //

dimensions      [1 0 -1 0 0 0 0];

internalField   nonuniform List<scalar> 
99
(
47.4488
98.0063
151.782
198.205
233.415
255.094
266.624
277.119
289.148
302.14
315.016
327.298
338.982
350.183
360.964
371.329
381.281
390.807
399.921
408.612
416.865
424.749
432.147
439.317
446.036
452.454
458.647
464.249
469.723
474.837
479.589
484.02
488.307
492.368
495.948
499.277
502.536
505.692
508.289
510.386
512.452
514.835
516.774
517.755
518.767
520.468
520.651
520.473
521.839
524.168
524.128
521.336
516.347
516.212
530.199
536.296
522.343
501.48
503.615
547.643
554.944
519.169
483.072
491.193
560.232
568.544
522.696
476.886
479.479
553.781
575.323
538.993
480.887
477.679
517.589
567.352
565.752
502.482
469.493
480.362
541.979
584.818
576.342
520.148
397.975
41.0264
15.8427
72.7526
55.9951
20.9562
6.89442
2.11385
0.392426
0.0445088
0.00293621
0.00010957
1.5216e-06
0
0
)
;

boundaryField
{
    sides
    {
        type            calculated;
        value           uniform 0;
    }
    empty
    {
        type            empty;
    }
}


// ************************************************************************* //
