/*--------------------------------*- C++ -*----------------------------------*\
| =========                 |                                                 |
| \\      /  F ield         | OpenFOAM: The Open Source CFD Toolbox           |
|  \\    /   O peration     | Version:  2412                                  |
|   \\  /    A nd           | Website:  www.openfoam.com                      |
|    \\/     M anipulation  |                                                 |
\*---------------------------------------------------------------------------*/
FoamFile
{
    version     2.0;
    format      ascii;
    arch        "LSB;label=32;scalar=64";
    class       volScalarField;
    location    "0.0166285";
    object      TTR;
}
// * * * * * * * * * * * * * * * * * * * * * * * * * * * * * * * * * * * * * //

dimensions      [0 0 0 1 0 0 0];

internalField   nonuniform List<scalar> 
100
(
281.412
281.606
282.845
283.704
284.038
283.569
282.551
281.218
279.86
278.575
277.338
276.114
274.885
273.656
272.42
271.203
269.944
268.788
267.415
266.503
264.71
264.538
261.655
263.002
258.353
261.412
255.55
258.98
253.61
256.121
251.76
253.252
250.123
250.331
248.076
247.764
246.189
245.167
243.7
242.742
241.81
240.647
239.063
237.932
237.378
236.199
234.409
234.458
234.112
232.109
230.747
230.623
232.805
237.139
236.2
226.242
221.874
235.213
250.706
240.304
214.395
211.951
242.4
264.48
242.376
206.439
205.835
243.346
270.168
248.567
209.713
202.7
232.74
266.095
259.269
223.021
203.1
216.088
251.321
269.566
250.408
215.712
200
212.166
245.22
324.839
293.413
259.207
295.425
353.754
391.937
420.049
417.845
428.054
415.962
426.023
408.943
422.709
407.641
413.212
)
;

boundaryField
{
    sides
    {
        type            zeroGradient;
    }
    empty
    {
        type            empty;
    }
}


// ************************************************************************* //
