/*--------------------------------*- C++ -*----------------------------------*\
| =========                 |                                                 |
| \\      /  F ield         | OpenFOAM: The Open Source CFD Toolbox           |
|  \\    /   O peration     | Version:  2412                                  |
|   \\  /    A nd           | Website:  www.openfoam.com                      |
|    \\/     M anipulation  |                                                 |
\*---------------------------------------------------------------------------*/
FoamFile
{
    version     2.0;
    format      ascii;
    arch        "LSB;label=32;scalar=64";
    class       volVectorField;
    location    "0.0465075";
    object      U;
}
// * * * * * * * * * * * * * * * * * * * * * * * * * * * * * * * * * * * * * //

dimensions      [0 1 -1 0 0 0 0];

internalField   nonuniform List<vector> 
100
(
(-132.465 0 0)
(-182.899 0 0)
(-262.658 0 0)
(-262.201 0 0)
(-260.707 0 0)
(-250.299 0 0)
(-229.879 0 0)
(-220.226 0 0)
(-217.828 0 0)
(-216.172 0 0)
(-217.178 0 0)
(-228.767 0 0)
(-236.668 0 0)
(-236.249 0 0)
(-234.409 0 0)
(-230.282 0 0)
(-220.957 0 0)
(-215.694 0 0)
(-213.67 0 0)
(-213.815 0 0)
(-216.892 0 0)
(-217.981 0 0)
(-216.382 0 0)
(-212.403 0 0)
(-203.085 0 0)
(-197.535 0 0)
(-195.47 0 0)
(-196.591 0 0)
(-201.246 0 0)
(-202 0 0)
(-200.121 0 0)
(-194.537 0 0)
(-184.419 0 0)
(-179.322 0 0)
(-177.685 0 0)
(-181.144 0 0)
(-191.59 0 0)
(-194.74 0 0)
(-193.287 0 0)
(-188.741 0 0)
(-175.078 0 0)
(-162.031 0 0)
(-157.128 0 0)
(-155.503 0 0)
(-155.906 0 0)
(-161.823 0 0)
(-167.184 0 0)
(-167.447 0 0)
(-166.016 0 0)
(-162.887 0 0)
(-158.732 0 0)
(-155.769 0 0)
(-153.917 0 0)
(-150.906 0 0)
(-146.473 0 0)
(-142.947 0 0)
(-141.572 0 0)
(-141.499 0 0)
(-142.425 0 0)
(-142.111 0 0)
(-139.89 0 0)
(-134.776 0 0)
(-128.974 0 0)
(-126.392 0 0)
(-127.397 0 0)
(-138.344 0 0)
(-148.317 0 0)
(-149.138 0 0)
(-147.442 0 0)
(-141.357 0 0)
(-125.487 0 0)
(-105.935 0 0)
(-94.6966 0 0)
(-88.0971 0 0)
(-84.0234 0 0)
(-81.2374 0 0)
(-77.5002 0 0)
(-75.3566 0 0)
(-73.0435 0 0)
(-73.4832 0 0)
(-72.0809 0 0)
(-70.238 0 0)
(-68.5385 0 0)
(-62.7859 0 0)
(-57.6172 0 0)
(-51.3275 0 0)
(-46.9804 0 0)
(-43.1764 0 0)
(-40.7078 0 0)
(-37.7045 0 0)
(-35.6074 0 0)
(-33.0316 0 0)
(-30.1573 0 0)
(-26.028 0 0)
(-21.7061 0 0)
(-17.5962 0 0)
(-13.3961 0 0)
(-9.80725 0 0)
(-5.62661 0 0)
(-2.03894 0 0)
)
;

boundaryField
{
    sides
    {
        type            fixedValue;
        value           uniform (0 0 0);
    }
    empty
    {
        type            empty;
    }
}


// ************************************************************************* //
