/*--------------------------------*- C++ -*----------------------------------*\
| =========                 |                                                 |
| \\      /  F ield         | OpenFOAM: The Open Source CFD Toolbox           |
|  \\    /   O peration     | Version:  2412                                  |
|   \\  /    A nd           | Website:  www.openfoam.com                      |
|    \\/     M anipulation  |                                                 |
\*---------------------------------------------------------------------------*/
FoamFile
{
    version     2.0;
    format      ascii;
    arch        "LSB;label=32;scalar=64";
    class       volVectorField;
    location    "0.00012746";
    object      U;
}
// * * * * * * * * * * * * * * * * * * * * * * * * * * * * * * * * * * * * * //

dimensions      [0 1 -1 0 0 0 0];

internalField   nonuniform List<vector> 
1800
(
(2.9 3.44252e-15 0)
(2.9 4.78966e-14 0)
(2.9 -1.77265e-14 0)
(2.9 2.71544e-14 0)
(2.9 2.96509e-14 0)
(2.9 1.96131e-14 0)
(2.9 -1.30244e-14 0)
(2.9 -2.74731e-14 0)
(2.9 -1.21218e-14 0)
(2.9 1.96394e-14 0)
(2.9 2.65567e-14 0)
(2.9 2.80744e-14 0)
(2.9 -1.97367e-15 0)
(2.9 -1.21544e-14 0)
(2.9 -2.85233e-14 0)
(2.9 2.38397e-14 0)
(2.9 1.77648e-14 0)
(2.9 -2.7424e-14 0)
(2.9 -5.38734e-14 0)
(2.9 -4.65341e-14 0)
(2.9 -3.2127e-14 0)
(2.9 -2.66108e-14 0)
(2.9 -1.31742e-14 0)
(2.9 -1.57494e-14 0)
(2.9 6.39813e-15 0)
(2.9 -2.19547e-14 0)
(2.9 -2.74111e-14 0)
(2.9 8.73732e-16 0)
(2.9 8.87456e-15 0)
(2.9 4.60286e-15 0)
(2.9 -1.44587e-14 0)
(2.9 4.0624e-15 0)
(2.9 -3.57809e-14 0)
(2.9 -4.30516e-14 0)
(2.9 -5.25458e-14 0)
(2.9 -6.05677e-14 0)
(2.9 -2.98781e-14 0)
(2.9 -2.43517e-14 0)
(2.9 -5.70875e-14 0)
(2.9 -3.82687e-14 0)
(2.9 -1.7329e-14 0)
(2.9 4.72055e-14 0)
(2.9 8.0384e-15 0)
(2.9 -4.2933e-14 0)
(2.9 -1.29771e-14 0)
(2.9 -3.51903e-14 0)
(2.9 -5.08697e-14 0)
(2.9 -5.66384e-14 0)
(2.9 -3.48113e-14 0)
(2.9 -4.11707e-14 0)
(2.9 -3.47444e-14 0)
(2.9 -1.02121e-14 0)
(2.9 -2.97047e-15 0)
(2.9 -1.63152e-14 0)
(2.9 1.72108e-14 0)
(2.9 -1.08799e-14 0)
(2.9 -6.53503e-15 0)
(2.9 -6.1508e-15 0)
(2.9 1.22189e-15 0)
(2.9 -1.06723e-14 0)
(2.9 7.81416e-15 0)
(2.9 -4.53507e-15 0)
(2.9 -7.4175e-14 0)
(2.9 1.12523e-14 0)
(2.9 4.28976e-14 0)
(2.9 3.19364e-14 0)
(2.9 -7.42105e-15 0)
(2.9 -3.25306e-14 0)
(2.9 -1.25186e-14 0)
(2.9 1.22083e-14 0)
(2.9 2.68222e-14 0)
(2.9 -4.8293e-15 0)
(2.9 -2.04998e-14 0)
(2.9 -2.82346e-14 0)
(2.9 3.67129e-14 0)
(2.9 6.93246e-14 0)
(2.9 6.9686e-14 0)
(2.9 -8.39706e-14 0)
(2.9 -7.49555e-14 0)
(2.9 -1.10284e-13 0)
(2.9 -9.75805e-14 0)
(2.9 -8.41159e-14 0)
(2.9 -4.31127e-14 0)
(2.9 7.67544e-16 0)
(2.9 -2.03979e-14 0)
(2.9 -7.70344e-14 0)
(2.9 -4.74864e-14 0)
(2.9 5.79045e-15 0)
(2.9 4.35917e-14 0)
(2.9 -1.7156e-14 0)
(2.9 -4.08727e-14 0)
(2.9 -6.10994e-14 0)
(2.9 -1.26482e-13 0)
(2.9 -1.21474e-13 0)
(2.9 -1.81025e-13 0)
(2.9 -1.85485e-13 0)
(2.9 -1.03348e-13 0)
(2.9 -7.39639e-14 0)
(2.9 -9.63359e-14 0)
(2.9 -4.89184e-14 0)
(2.9 -5.92251e-14 0)
(2.9 7.88157e-14 0)
(2.9 1.8554e-14 0)
(2.9 2.0289e-14 0)
(2.9 -6.50576e-14 0)
(2.9 -1.1938e-13 0)
(2.9 -1.68414e-13 0)
(2.9 -1.15421e-13 0)
(2.9 -6.94026e-14 0)
(2.9 -8.62433e-14 0)
(2.9 -6.11749e-14 0)
(2.9 -3.80813e-14 0)
(2.9 -6.9784e-16 0)
(2.9 -4.75934e-14 0)
(2.9 -3.30034e-14 0)
(2.9 -5.12321e-14 0)
(2.9 -1.53213e-14 0)
(2.9 -4.62758e-14 0)
(2.9 1.2465e-14 0)
(2.9 -3.93556e-14 0)
(2.9 -4.67915e-14 0)
(2.9 -3.92336e-14 0)
(2.9 -7.51866e-14 0)
(2.9 -9.28796e-14 0)
(2.9 2.43406e-14 0)
(2.9 -1.09246e-14 0)
(2.9 -7.13227e-15 0)
(2.9 7.27855e-14 0)
(2.9 3.00759e-14 0)
(2.9 2.88841e-14 0)
(2.9 1.07041e-13 0)
(2.9 -5.50406e-14 0)
(2.9 4.65096e-14 0)
(2.9 -1.62703e-14 0)
(2.9 1.20871e-14 0)
(2.9 3.45021e-14 0)
(2.9 5.79884e-14 0)
(2.9 -1.65217e-14 0)
(2.9 -1.65969e-14 0)
(2.9 -5.57439e-14 0)
(2.9 -9.81378e-14 0)
(2.9 -9.5572e-14 0)
(2.9 -4.86879e-14 0)
(2.9 -3.46456e-14 0)
(2.9 -3.75906e-14 0)
(2.9 -4.66266e-14 0)
(2.9 4.66826e-14 0)
(2.9 1.73458e-14 0)
(2.9 4.11454e-14 0)
(2.9 3.7827e-14 0)
(2.9 -6.9393e-14 0)
(2.9 -1.36155e-13 0)
(2.9 -9.30273e-14 0)
(2.9 -9.475e-14 0)
(2.9 -1.4314e-13 0)
(2.9 -1.42385e-13 0)
(2.9 -1.07125e-13 0)
(2.9 -8.07088e-14 0)
(2.9 -8.88182e-14 0)
(2.9 -8.35192e-14 0)
(2.9 -1.42328e-13 0)
(2.9 -3.95309e-14 0)
(2.9 -7.41465e-15 0)
(2.9 6.19041e-15 0)
(2.9 -3.62462e-14 0)
(2.9 -1.43679e-13 0)
(2.9 -1.7252e-13 0)
(2.9 -8.72626e-14 0)
(2.9 -6.29476e-14 0)
(2.9 -3.79105e-14 0)
(2.9 -5.09759e-14 0)
(2.9 -5.33083e-14 0)
(2.9 -8.94681e-15 0)
(2.9 -6.58763e-14 0)
(2.9 -5.4205e-14 0)
(2.9 -2.4235e-14 0)
(2.9 -3.77064e-14 0)
(2.9 -9.13761e-14 0)
(2.9 6.33954e-15 0)
(2.9 4.30376e-14 0)
(2.9 -1.71175e-14 0)
(2.9 -2.80067e-14 0)
(2.9 -8.13347e-14 0)
(2.9 -1.30542e-13 0)
(2.9 -3.79259e-14 0)
(2.9 -4.09867e-14 0)
(2.9 -1.73937e-14 0)
(2.9 -1.41734e-14 0)
(2.9 2.96965e-14 0)
(2.9 7.40322e-14 0)
(2.9 9.06531e-14 0)
(2.9 -5.26986e-14 0)
(2.9 -2.44325e-15 0)
(2.9 -5.70161e-14 0)
(2.9 -3.38688e-14 0)
(2.9 2.78685e-14 0)
(2.9 3.32371e-14 0)
(2.9 4.8186e-14 0)
(2.9 -1.23041e-14 0)
(2.9 -4.33898e-14 0)
(2.9 -9.91653e-14 0)
(2.9 -8.84996e-14 0)
(2.9 -5.11799e-14 0)
(2.9 -1.21987e-14 0)
(2.9 -1.48274e-14 0)
(2.9 -2.17367e-14 0)
(2.9 4.83553e-14 0)
(2.9 5.74253e-15 0)
(2.9 4.91242e-14 0)
(2.9 3.3798e-14 0)
(2.9 -7.09343e-14 0)
(2.9 -9.49369e-14 0)
(2.9 -1.54629e-13 0)
(2.9 -1.14159e-13 0)
(2.9 -1.13532e-13 0)
(2.9 -8.93367e-14 0)
(2.9 -5.29109e-14 0)
(2.9 -4.64423e-14 0)
(2.9 -9.94132e-14 0)
(2.9 -9.17774e-14 0)
(2.9 -1.41403e-13 0)
(2.9 -2.52832e-14 0)
(2.9 -1.26415e-14 0)
(2.9 2.44395e-14 0)
(2.9 -1.2672e-15 0)
(2.9 -7.48419e-14 0)
(2.9 -1.2351e-13 0)
(2.9 -7.26627e-14 0)
(2.9 -6.09393e-14 0)
(2.9 -2.50739e-14 0)
(2.9 -2.37476e-14 0)
(2.9 -6.72162e-14 0)
(2.9 -7.57811e-14 0)
(2.9 -6.54699e-14 0)
(2.9 -8.68767e-14 0)
(2.9 -3.9915e-14 0)
(2.9 -2.10359e-14 0)
(2.9 9.97689e-15 0)
(2.9 1.01336e-13 0)
(2.9 7.79235e-14 0)
(2.9 1.10668e-14 0)
(2.9 -7.09791e-14 0)
(2.9 -7.66401e-14 0)
(2.9 -9.32106e-14 0)
(2.9 -6.99506e-14 0)
(2.9 -4.18314e-14 0)
(2.9 -9.94971e-15 0)
(2.9 -2.53064e-14 0)
(2.9 1.92979e-14 0)
(2.9 1.11081e-13 0)
(2.9 1.25732e-14 0)
(2.9 -8.31032e-15 0)
(2.9 -4.88919e-14 0)
(2.9 -5.43543e-14 0)
(2.9 -9.55951e-14 0)
(2.9 -1.73668e-14 0)
(2.9 6.79674e-15 0)
(2.9 -1.43422e-14 0)
(2.9 -1.43062e-14 0)
(2.9 -4.3122e-14 0)
(2.9 -3.04669e-14 0)
(2.9 -3.73889e-14 0)
(2.9 -6.85642e-14 0)
(2.9 -5.83145e-14 0)
(2.9 -3.13294e-15 0)
(2.9 -2.14523e-14 0)
(2.9 3.35492e-14 0)
(2.9 -2.46367e-14 0)
(2.9 -1.17454e-14 0)
(2.9 1.64048e-14 0)
(2.9 -5.97957e-14 0)
(2.9 -9.85439e-14 0)
(2.9 -1.0714e-13 0)
(2.9 -1.00315e-13 0)
(2.9 -9.80097e-14 0)
(2.9 -6.22407e-14 0)
(2.9 -3.53988e-15 0)
(2.9 -1.52228e-14 0)
(2.9 -1.968e-14 0)
(2.9 -7.75615e-14 0)
(2.9 -7.75345e-14 0)
(2.9 5.4113e-14 0)
(2.9 -1.916e-14 0)
(2.9 6.29709e-14 0)
(2.9 -1.19439e-14 0)
(2.9 -7.19658e-15 0)
(2.9 -8.79031e-14 0)
(2.9 -5.5163e-14 0)
(2.9 -1.71736e-14 0)
(2.9 -6.49101e-15 0)
(2.9 1.45916e-14 0)
(2.9 -6.51739e-14 0)
(2.9 -9.79399e-14 0)
(2.9 -5.97078e-14 0)
(2.9 -1.11702e-13 0)
(2.9 -6.63737e-14 0)
(2.9 1.25741e-14 0)
(2.9 7.37068e-14 0)
(2.9 1.13085e-13 0)
(2.9 -1.71643e-14 0)
(2.9 4.21019e-15 0)
(2.9 -5.41062e-15 0)
(2.9 -6.32659e-14 0)
(2.9 -3.66844e-14 0)
(2.9 1.03671e-14 0)
(2.9 -8.09856e-14 0)
(2.9 -6.56986e-14 0)
(2.9 -2.09068e-14 0)
(2.9 2.08253e-14 0)
(2.9 1.04644e-13 0)
(2.9 2.3483e-14 0)
(2.9 7.24844e-14 0)
(2.9 5.76835e-14 0)
(2.9 -1.97373e-14 0)
(2.9 -8.98565e-14 0)
(2.9 -3.10303e-14 0)
(2.9 -1.0696e-14 0)
(2.9 -2.28871e-14 0)
(2.9 -1.67113e-14 0)
(2.9 -7.49359e-15 0)
(2.9 -2.72454e-14 0)
(2.9 -5.51017e-14 0)
(2.9 -2.70307e-14 0)
(2.9 -1.16021e-14 0)
(2.9 2.18426e-14 0)
(2.9 6.19647e-14 0)
(2.9 3.17355e-14 0)
(2.9 -7.39128e-16 0)
(2.9 -9.08525e-14 0)
(2.9 3.7893e-14 0)
(2.9 -5.61785e-14 0)
(2.9 1.81053e-15 0)
(2.9 3.53509e-15 0)
(2.9 -8.48771e-15 0)
(2.9 -5.91214e-14 0)
(2.9 -8.59745e-14 0)
(2.9 -4.40351e-14 0)
(2.9 6.63974e-15 0)
(2.9 4.23147e-15 0)
(2.9 -3.50834e-14 0)
(2.9 5.36748e-14 0)
(2.9 5.37008e-14 0)
(2.9 6.35239e-14 0)
(2.9 3.18151e-14 0)
(2.9 1.37775e-14 0)
(2.9 -4.58944e-15 0)
(2.9 -4.80835e-14 0)
(2.9 1.13727e-14 0)
(2.9 5.76432e-14 0)
(2.9 3.95736e-14 0)
(2.9 6.48973e-14 0)
(2.9 2.15834e-14 0)
(2.9 -5.26945e-15 0)
(2.9 -1.25957e-14 0)
(2.9 -3.17024e-14 0)
(2.9 -1.84871e-14 0)
(2.9 -5.92842e-15 0)
(2.9 1.06254e-13 0)
(2.9 4.08679e-14 0)
(2.9 -1.02941e-13 0)
(2.9 4.3982e-15 0)
(2.9 4.10227e-14 0)
(2.9 3.47697e-14 0)
(2.9 -5.21141e-15 0)
(2.9 -3.08996e-14 0)
(2.9 -1.24446e-13 0)
(2.9 -5.77458e-14 0)
(2.9 -3.05487e-15 0)
(2.9 2.06292e-14 0)
(2.9 4.02029e-14 0)
(2.9 -2.15936e-14 0)
(2.9 7.06687e-14 0)
(2.9 7.06354e-14 0)
(2.9 -8.89384e-15 0)
(2.9 -2.13622e-14 0)
(2.9 -7.5517e-14 0)
(2.9 -3.18387e-14 0)
(2.9 -3.06669e-14 0)
(2.9 3.60636e-14 0)
(2.9 4.27016e-14 0)
(2.9 3.19072e-14 0)
(2.9 -5.24823e-14 0)
(2.9 7.91877e-15 0)
(2.9 -5.21359e-14 0)
(2.9 -1.61263e-14 0)
(2.9 5.68282e-14 0)
(2.9 4.39196e-14 0)
(2.9 4.00084e-14 0)
(2.9 -4.22926e-14 0)
(2.9 3.50918e-14 0)
(2.9 -9.67088e-15 0)
(2.9 5.77228e-14 0)
(2.9 4.7266e-14 0)
(2.9 2.67679e-14 0)
(2.9 -6.54379e-14 0)
(2.9 -5.992e-14 0)
(2.9 -1.59855e-14 0)
(2.9 9.91822e-15 0)
(2.9 -4.17489e-14 0)
(2.9 -3.02202e-14 0)
(2.9 1.02307e-13 0)
(2.9 7.90706e-14 0)
(2.9 4.24415e-14 0)
(2.9 1.61627e-14 0)
(2.9 4.40095e-14 0)
(2.9 -1.98502e-15 0)
(2.9 -1.03965e-14 0)
(2.9 8.25788e-15 0)
(2.9 9.19237e-15 0)
(2.9 5.79764e-14 0)
(2.9 2.62288e-14 0)
(2.9 -7.31734e-15 0)
(2.9 1.55975e-14 0)
(2.9 -7.91859e-15 0)
(2.9 -1.01813e-14 0)
(2.9 1.94044e-14 0)
(2.9 9.99463e-15 0)
(2.9 1.83627e-14 0)
(2.9 -2.39992e-14 0)
(2.9 -1.1482e-13 0)
(2.9 -1.77566e-15 0)
(2.9 5.18146e-14 0)
(2.9 9.28731e-14 0)
(2.9 -1.54565e-14 0)
(2.9 -1.06914e-13 0)
(2.9 -5.9126e-14 0)
(2.9 3.94464e-14 0)
(2.9 2.40828e-14 0)
(2.9 2.6032e-14 0)
(2.9 -1.99395e-15 0)
(2.9 4.30901e-14 0)
(2.9 5.7069e-15 0)
(2.9 4.5192e-14 0)
(2.9 9.06116e-14 0)
(2.9 9.67015e-14 0)
(2.9 -6.66442e-14 0)
(2.9 -1.36111e-14 0)
(2.9 -1.27565e-14 0)
(2.9 5.10042e-14 0)
(2.9 7.24258e-14 0)
(2.9 1.13161e-13 0)
(2.9 5.0108e-14 0)
(2.9 5.23489e-14 0)
(2.9 3.28516e-14 0)
(2.9 1.01575e-14 0)
(2.9 1.66433e-14 0)
(2.9 6.76217e-14 0)
(2.9 3.85117e-14 0)
(2.9 3.80225e-14 0)
(2.9 6.23918e-14 0)
(2.9 8.6281e-15 0)
(2.9 3.3047e-14 0)
(2.9 6.54444e-14 0)
(2.9 3.26408e-14 0)
(2.9 3.49954e-14 0)
(2.9 3.51773e-14 0)
(2.9 4.13258e-14 0)
(2.9 2.18182e-14 0)
(2.9 -2.87532e-14 0)
(2.9 -5.88988e-14 0)
(2.9 9.92053e-14 0)
(2.9 1.21645e-13 0)
(2.9 1.12063e-13 0)
(2.9 -6.98639e-15 0)
(2.9 5.54881e-14 0)
(2.9 -2.18652e-14 0)
(2.9 7.30672e-14 0)
(2.9 4.10221e-14 0)
(2.9 3.30517e-14 0)
(2.9 5.68736e-14 0)
(2.9 5.82e-14 0)
(2.9 4.68802e-14 0)
(2.9 7.49014e-14 0)
(2.9 -2.44827e-14 0)
(2.9 2.99191e-14 0)
(2.9 2.91347e-14 0)
(2.9 3.9286e-14 0)
(2.9 -2.60016e-14 0)
(2.9 -8.00349e-14 0)
(2.9 -1.02664e-13 0)
(2.9 1.89592e-14 0)
(2.9 2.8224e-14 0)
(2.9 5.68077e-15 0)
(2.9 6.08468e-15 0)
(2.9 -1.92615e-14 0)
(2.9 -3.52585e-14 0)
(2.9 -4.14374e-14 0)
(2.9 1.66642e-14 0)
(2.9 3.59908e-14 0)
(2.9 5.61555e-14 0)
(2.9 5.52957e-14 0)
(2.9 4.93353e-14 0)
(2.9 4.93583e-14 0)
(2.9 1.23365e-13 0)
(2.9 3.87725e-14 0)
(2.9 -3.67267e-15 0)
(2.9 -1.45829e-14 0)
(2.9 -1.73118e-14 0)
(2.9 4.18059e-14 0)
(2.9 6.80265e-14 0)
(2.9 7.35209e-14 0)
(2.9 1.42634e-13 0)
(2.9 2.51518e-14 0)
(2.9 9.04899e-14 0)
(2.9 6.21949e-14 0)
(2.9 5.23955e-14 0)
(2.9 3.74579e-14 0)
(2.9 2.65432e-14 0)
(2.9 2.90688e-14 0)
(2.9 5.33477e-14 0)
(2.9 4.36081e-16 0)
(2.9 5.11221e-15 0)
(2.9 3.54315e-14 0)
(2.9 3.20221e-14 0)
(2.9 5.93472e-14 0)
(2.9 9.41589e-14 0)
(2.9 5.07216e-14 0)
(2.9 1.30702e-14 0)
(2.9 2.43354e-14 0)
(2.9 -7.74083e-16 0)
(2.9 7.46472e-14 0)
(2.9 1.04581e-13 0)
(2.9 8.1122e-14 0)
(2.9 -3.21458e-15 0)
(2.9 8.48777e-15 0)
(2.9 -2.30569e-14 0)
(2.9 5.57857e-14 0)
(2.9 2.58281e-14 0)
(2.9 9.43271e-14 0)
(2.9 1.28534e-14 0)
(2.9 5.40892e-14 0)
(2.9 9.18698e-14 0)
(2.9 3.77431e-14 0)
(2.9 5.18116e-14 0)
(2.9 5.60828e-14 0)
(2.9 4.42627e-14 0)
(2.9 2.14326e-14 0)
(2.9 -5.0255e-14 0)
(2.9 -5.79085e-14 0)
(2.9 -1.13565e-13 0)
(2.9 -4.77594e-15 0)
(2.9 -1.67503e-14 0)
(2.9 8.6846e-15 0)
(2.9 5.12006e-14 0)
(2.9 4.51438e-14 0)
(2.9 9.13917e-14 0)
(2.9 -7.33375e-15 0)
(2.9 -1.06366e-14 0)
(2.9 1.9371e-15 0)
(2.9 2.01644e-15 0)
(2.9 2.60843e-14 0)
(2.9 3.57815e-14 0)
(2.9 -6.52196e-14 0)
(2.9 3.67423e-14 0)
(2.9 -3.80021e-15 0)
(2.9 -1.16026e-14 0)
(2.9 5.73892e-15 0)
(2.9 2.7003e-14 0)
(2.9 3.91052e-14 0)
(2.9 3.76687e-14 0)
(2.9 7.04463e-14 0)
(2.9 9.12956e-14 0)
(2.9 1.34843e-14 0)
(2.9 5.63516e-14 0)
(2.9 7.78843e-14 0)
(2.9 3.89467e-14 0)
(2.9 1.35016e-14 0)
(2.9 1.79642e-14 0)
(2.9 5.83349e-14 0)
(2.9 5.09596e-15 0)
(2.9 5.48568e-14 0)
(2.9 -1.65509e-14 0)
(2.9 -4.10695e-14 0)
(2.9 -1.43321e-14 0)
(2.9 4.54643e-14 0)
(2.9 9.90312e-14 0)
(2.9 5.64752e-14 0)
(2.9 -3.17034e-15 0)
(2.9 7.53083e-14 0)
(2.9 5.40169e-14 0)
(2.9 4.57795e-14 0)
(2.9 8.97599e-14 0)
(2.9 3.72754e-14 0)
(2.9 -3.0633e-14 0)
(2.9 -4.28995e-15 0)
(2.9 9.00926e-14 0)
(2.9 7.4435e-14 0)
(2.9 1.49389e-14 0)
(2.9 3.96944e-14 0)
(2.9 -3.63387e-14 0)
(2.9 -1.11743e-14 0)
(2.9 4.02957e-14 0)
(2.9 1.52452e-14 0)
(2.9 3.67958e-14 0)
(2.9 7.26374e-14 0)
(2.9 2.7797e-14 0)
(2.9 3.51372e-14 0)
(2.9 -2.56278e-14 0)
(2.9 -3.77095e-14 0)
(2.9 6.36996e-15 0)
(2.9 -1.30565e-14 0)
(2.9 1.13989e-14 0)
(2.9 -9.81317e-15 0)
(2.9 1.10807e-13 0)
(2.9 3.61764e-14 0)
(2.9 1.59108e-13 0)
(2.9 8.39615e-14 0)
(2.9 -2.24591e-14 0)
(2.9 -9.40302e-15 0)
(2.9 5.23701e-15 0)
(2.9 -5.70819e-14 0)
(2.9 -4.2655e-14 0)
(2.9 -1.34578e-13 0)
(2.9 -1.91801e-14 0)
(2.9 2.46075e-14 0)
(2.9 3.14058e-14 0)
(2.9 6.15931e-14 0)
(2.9 6.05806e-14 0)
(2.9 6.15586e-14 0)
(2.9 1.38322e-14 0)
(2.9 3.9748e-14 0)
(2.9 3.18048e-14 0)
(2.9 3.66065e-14 0)
(2.9 1.16876e-14 0)
(2.9 5.06383e-14 0)
(2.9 4.65433e-14 0)
(2.9 3.20872e-14 0)
(2.9 -1.23714e-14 0)
(2.9 1.08782e-13 0)
(2.9 8.59991e-15 0)
(2.9 2.84888e-14 0)
(2.9 -9.32227e-15 0)
(2.9 -8.76962e-14 0)
(2.9 -3.33646e-14 0)
(2.9 7.26531e-14 0)
(2.9 1.00236e-13 0)
(2.9 3.20306e-14 0)
(2.9 -1.27661e-14 0)
(2.9 1.97378e-14 0)
(2.9 2.44366e-14 0)
(2.9 1.83105e-14 0)
(2.9 1.42052e-14 0)
(2.9 4.47006e-14 0)
(2.9 -9.9932e-15 0)
(2.9 -9.64959e-15 0)
(2.9 7.76507e-14 0)
(2.9 1.2658e-13 0)
(2.9 4.40708e-14 0)
(2.9 -2.72777e-14 0)
(2.9 -8.84237e-15 0)
(2.9 -1.6702e-14 0)
(2.9 6.93007e-14 0)
(2.9 5.55103e-14 0)
(2.9 1.93313e-14 0)
(2.9 6.9429e-14 0)
(2.9 5.63592e-14 0)
(2.9 6.00521e-14 0)
(2.9 1.17026e-13 0)
(2.9 -3.21582e-14 0)
(2.9 1.24658e-13 0)
(2.9 9.97264e-15 0)
(2.9 -5.56431e-14 0)
(2.9 7.34821e-14 0)
(2.9 7.65106e-14 0)
(2.9 4.16392e-14 0)
(2.9 3.67653e-14 0)
(2.9 4.32155e-14 0)
(2.9 -8.15769e-14 0)
(2.9 2.24988e-14 0)
(2.9 -3.60997e-14 0)
(2.9 1.45376e-14 0)
(2.9 -7.20998e-14 0)
(2.9 -1.13605e-13 0)
(2.9 -6.33464e-14 0)
(2.9 -1.59741e-14 0)
(2.9 5.81796e-14 0)
(2.9 7.67615e-14 0)
(2.9 1.18046e-13 0)
(2.9 4.61368e-14 0)
(2.9 5.0607e-14 0)
(2.9 4.28471e-14 0)
(2.9 5.49604e-14 0)
(2.9 5.52263e-14 0)
(2.9 3.45744e-14 0)
(2.9 -3.39867e-14 0)
(2.9 3.50997e-14 0)
(2.9 -2.35096e-14 0)
(2.9 -4.44388e-14 0)
(2.9 9.32472e-14 0)
(2.9 2.67257e-14 0)
(2.9 3.02247e-14 0)
(2.9 1.1656e-14 0)
(2.9 9.21009e-15 0)
(2.9 3.998e-14 0)
(2.9 4.99342e-14 0)
(2.9 2.82041e-14 0)
(2.9 1.65734e-15 0)
(2.9 3.86241e-14 0)
(2.9 -2.15559e-14 0)
(2.9 -1.44624e-14 0)
(2.9 -1.83659e-14 0)
(2.9 -6.31012e-14 0)
(2.9 -2.43521e-14 0)
(2.9 5.65416e-14 0)
(2.9 3.03028e-14 0)
(2.9 4.08226e-14 0)
(2.9 4.77525e-14 0)
(2.9 4.11253e-14 0)
(2.9 2.25379e-14 0)
(2.9 5.75687e-14 0)
(2.9 -1.23492e-15 0)
(2.9 8.27735e-15 0)
(2.9 5.01772e-14 0)
(2.9 3.35414e-14 0)
(2.9 1.765e-14 0)
(2.9 4.48397e-14 0)
(2.9 2.97152e-14 0)
(2.9 5.26494e-14 0)
(2.9 -3.57642e-14 0)
(2.9 6.16727e-14 0)
(2.9 7.1426e-15 0)
(2.9 -4.20421e-14 0)
(2.9 5.9505e-15 0)
(2.9 1.44215e-14 0)
(2.9 3.58608e-14 0)
(2.9 1.01685e-14 0)
(2.9 5.05392e-15 0)
(2.9 -4.28131e-14 0)
(2.9 -6.34096e-14 0)
(2.9 -4.40989e-14 0)
(2.9 3.09917e-14 0)
(2.9 4.73836e-15 0)
(2.9 4.23582e-14 0)
(2.9 -4.85655e-14 0)
(2.9 -5.84115e-14 0)
(2.9 1.75797e-15 0)
(2.9 6.86885e-14 0)
(2.9 6.90277e-14 0)
(2.9 9.26149e-15 0)
(2.9 -6.06194e-16 0)
(2.9 -1.7995e-15 0)
(2.9 5.72001e-14 0)
(2.9 3.07219e-14 0)
(2.9 -1.08552e-14 0)
(2.9 -5.40633e-14 0)
(2.9 1.36509e-14 0)
(2.9 -4.05937e-14 0)
(2.9 8.59944e-14 0)
(2.9 4.18256e-14 0)
(2.9 2.14977e-14 0)
(2.9 2.96238e-14 0)
(2.9 -2.31641e-14 0)
(2.9 1.60302e-14 0)
(2.9 1.26574e-14 0)
(2.9 -1.80343e-14 0)
(2.9 4.93658e-15 0)
(2.9 -5.21499e-15 0)
(2.9 2.09427e-14 0)
(2.9 -2.16721e-14 0)
(2.9 -1.31508e-14 0)
(2.9 -9.48839e-14 0)
(2.9 -6.03165e-14 0)
(2.9 -7.77252e-14 0)
(2.9 3.50121e-14 0)
(2.9 5.24071e-14 0)
(2.9 6.6297e-14 0)
(2.9 4.47625e-14 0)
(2.9 -1.06204e-14 0)
(2.9 -8.09997e-15 0)
(2.9 -1.83452e-14 0)
(2.9 -8.02094e-15 0)
(2.9 -1.78971e-14 0)
(2.9 1.33265e-14 0)
(2.9 2.79921e-14 0)
(2.9 7.59147e-15 0)
(2.9 -1.67306e-15 0)
(2.9 -4.72031e-15 0)
(2.9 -2.15384e-14 0)
(2.9 -5.31526e-14 0)
(2.9 -4.91179e-15 0)
(2.9 -7.17166e-14 0)
(2.9 -2.64626e-14 0)
(2.9 -4.71756e-14 0)
(2.9 1.64954e-14 0)
(2.9 2.61356e-14 0)
(2.9 -6.54421e-15 0)
(2.9 -3.40157e-14 0)
(2.9 -3.30355e-14 0)
(2.9 1.18878e-14 0)
(2.9 -1.13233e-14 0)
(2.9 2.06412e-14 0)
(2.9 2.71908e-14 0)
(2.9 3.4497e-14 0)
(2.9 -3.53143e-14 0)
(2.9 -6.77715e-14 0)
(2.9 -8.99113e-14 0)
(2.9 -3.68825e-14 0)
(2.9 3.70073e-14 0)
(2.9 -5.9582e-14 0)
(2.9 -7.96079e-14 0)
(2.9 -4.51307e-14 0)
(2.9 2.05782e-14 0)
(2.9 2.49547e-14 0)
(2.9 -1.68212e-14 0)
(2.9 9.84626e-15 0)
(2.9 3.73788e-15 0)
(2.9 -1.35722e-14 0)
(2.9 7.37585e-14 0)
(2.9 3.37978e-14 0)
(2.9 5.56228e-14 0)
(2.9 1.19314e-14 0)
(2.9 -4.4169e-14 0)
(2.9 7.41715e-15 0)
(2.9 -7.21852e-15 0)
(2.9 -4.83575e-14 0)
(2.9 -1.11747e-14 0)
(2.9 3.03279e-14 0)
(2.9 -4.12188e-14 0)
(2.9 -3.5261e-14 0)
(2.9 -5.58985e-14 0)
(2.9 -1.26937e-13 0)
(2.9 -7.58643e-14 0)
(2.9 -5.11263e-14 0)
(2.9 4.47322e-14 0)
(2.9 8.33242e-14 0)
(2.9 9.47785e-14 0)
(2.9 6.15472e-14 0)
(2.9 -2.17722e-14 0)
(2.9 -3.18758e-14 0)
(2.9 3.01171e-15 0)
(2.9 -3.34154e-14 0)
(2.9 -3.14788e-15 0)
(2.9 -1.13848e-14 0)
(2.9 2.91816e-14 0)
(2.9 2.18735e-14 0)
(2.9 -8.79087e-15 0)
(2.9 -4.24232e-14 0)
(2.9 -2.42579e-14 0)
(2.9 4.01663e-14 0)
(2.9 -3.79666e-15 0)
(2.9 -4.64262e-14 0)
(2.9 6.89987e-15 0)
(2.9 -2.25356e-14 0)
(2.9 9.11199e-15 0)
(2.9 6.95909e-14 0)
(2.9 -1.31876e-14 0)
(2.9 3.93929e-14 0)
(2.9 2.7518e-14 0)
(2.9 6.09264e-14 0)
(2.9 1.10799e-14 0)
(2.9 1.59053e-14 0)
(2.9 3.77724e-14 0)
(2.9 2.80097e-14 0)
(2.9 -2.35897e-14 0)
(2.9 -8.27407e-14 0)
(2.9 -3.59142e-14 0)
(2.9 -8.37253e-14 0)
(2.9 3.27956e-14 0)
(2.9 -4.29431e-14 0)
(2.9 2.59612e-14 0)
(2.9 -5.57611e-14 0)
(2.9 -2.7667e-14 0)
(2.9 -1.60435e-14 0)
(2.9 2.31563e-14 0)
(2.9 8.99694e-14 0)
(2.9 -1.57897e-14 0)
(2.9 -3.31097e-14 0)
(2.9 -3.92527e-14 0)
(2.9 4.12036e-15 0)
(2.9 2.05499e-14 0)
(2.9 -4.05881e-15 0)
(2.9 -1.09925e-14 0)
(2.9 -7.3047e-15 0)
(2.9 1.11815e-14 0)
(2.9 1.40756e-14 0)
(2.9 3.2355e-15 0)
(2.9 6.10361e-15 0)
(2.9 -4.09528e-14 0)
(2.9 -1.73025e-14 0)
(2.9 -7.03509e-14 0)
(2.9 -6.80982e-14 0)
(2.9 -5.1724e-14 0)
(2.9 -1.60125e-14 0)
(2.9 4.2645e-14 0)
(2.9 8.75669e-14 0)
(2.9 4.97242e-14 0)
(2.9 4.30468e-15 0)
(2.9 1.19814e-14 0)
(2.9 -5.78431e-14 0)
(2.9 -2.23336e-14 0)
(2.9 -4.32343e-15 0)
(2.9 -3.51793e-14 0)
(2.9 -2.68191e-14 0)
(2.9 1.58338e-14 0)
(2.9 1.72594e-14 0)
(2.9 3.52134e-14 0)
(2.9 -2.49341e-14 0)
(2.9 7.33941e-16 0)
(2.9 1.79089e-14 0)
(2.9 4.18226e-14 0)
(2.9 -2.69299e-14 0)
(2.9 6.08534e-14 0)
(2.9 -1.99139e-14 0)
(2.9 2.19681e-14 0)
(2.9 1.00159e-13 0)
(2.9 6.504e-14 0)
(2.9 5.17069e-14 0)
(2.9 9.92639e-14 0)
(2.9 4.32612e-14 0)
(2.9 3.45596e-14 0)
(2.9 5.5935e-15 0)
(2.9 4.1921e-14 0)
(2.9 3.00329e-14 0)
(2.9 9.32441e-15 0)
(2.9 -1.88029e-14 0)
(2.9 6.79841e-15 0)
(2.9 -7.36224e-14 0)
(2.9 -3.81075e-15 0)
(2.9 -4.51323e-14 0)
(2.9 3.37252e-14 0)
(2.9 -7.50111e-14 0)
(2.9 -5.52528e-14 0)
(2.9 -2.52543e-14 0)
(2.9 8.2587e-15 0)
(2.9 -8.70915e-15 0)
(2.9 -1.67708e-14 0)
(2.9 -7.6474e-14 0)
(2.9 -3.20048e-14 0)
(2.9 -7.38913e-15 0)
(2.9 -3.95445e-14 0)
(2.9 -7.40729e-14 0)
(2.9 -8.78135e-14 0)
(2.9 -7.52102e-14 0)
(2.9 -3.92274e-14 0)
(2.9 -4.48854e-14 0)
(2.9 -7.451e-14 0)
(2.9 -5.2665e-14 0)
(2.9 -2.17221e-14 0)
(2.9 -3.88895e-14 0)
(2.9 -2.13225e-14 0)
(2.9 5.78122e-14 0)
(2.9 -5.23282e-14 0)
(2.9 -7.06638e-16 0)
(2.9 1.76737e-14 0)
(2.9 5.06758e-14 0)
(2.9 1.1504e-14 0)
(2.9 1.20273e-14 0)
(2.9 1.37677e-14 0)
(2.9 -1.07738e-13 0)
(2.9 -4.63567e-14 0)
(2.9 -9.06179e-15 0)
(2.9 -8.26101e-14 0)
(2.9 -7.69358e-14 0)
(2.9 -2.52894e-14 0)
(2.9 -2.55929e-14 0)
(2.9 4.06955e-14 0)
(2.9 -3.83604e-14 0)
(2.9 3.04186e-14 0)
(2.9 6.0786e-14 0)
(2.9 6.57594e-14 0)
(2.9 -1.15848e-14 0)
(2.9 1.42886e-13 0)
(2.9 2.19984e-14 0)
(2.9 1.96417e-14 0)
(2.9 1.33832e-14 0)
(2.9 7.52823e-14 0)
(2.9 4.42623e-14 0)
(2.9 4.37993e-14 0)
(2.9 -5.69683e-14 0)
(2.9 -2.77787e-14 0)
(2.9 -1.98643e-14 0)
(2.9 6.25481e-14 0)
(2.9 3.24542e-14 0)
(2.9 6.09361e-14 0)
(2.9 3.78112e-14 0)
(2.9 5.948e-15 0)
(2.9 1.02378e-14 0)
(2.9 -1.97835e-14 0)
(2.9 -1.33274e-14 0)
(2.9 -1.08491e-14 0)
(2.9 -8.85327e-14 0)
(2.9 -4.98028e-14 0)
(2.9 -5.86285e-14 0)
(2.9 -7.48815e-15 0)
(2.9 -1.33391e-14 0)
(2.9 1.76789e-14 0)
(2.9 2.68243e-14 0)
(2.9 -3.53783e-14 0)
(2.9 -9.50115e-14 0)
(2.9 -6.2722e-14 0)
(2.9 -9.67423e-14 0)
(2.9 2.58173e-15 0)
(2.9 -3.01451e-14 0)
(2.9 -1.90427e-14 0)
(2.9 -5.51387e-14 0)
(2.9 -6.0391e-14 0)
(2.9 -4.94864e-14 0)
(2.9 -1.3115e-14 0)
(2.9 -7.69961e-14 0)
(2.9 -1.82481e-14 0)
(2.9 1.10885e-13 0)
(2.9 -2.43109e-14 0)
(2.9 -2.8342e-14 0)
(2.9 3.96621e-14 0)
(2.9 1.00582e-14 0)
(2.9 -1.02855e-15 0)
(2.9 6.68108e-15 0)
(2.9 -1.15881e-14 0)
(2.9 -8.44445e-14 0)
(2.9 -3.30436e-14 0)
(2.9 -7.77452e-15 0)
(2.9 -6.45616e-14 0)
(2.9 4.95146e-15 0)
(2.9 -5.6735e-14 0)
(2.9 -2.94779e-14 0)
(2.9 -4.25477e-14 0)
(2.9 -6.76305e-14 0)
(2.9 5.01219e-14 0)
(2.9 1.68634e-13 0)
(2.9 5.2866e-14 0)
(2.9 -7.34795e-17 0)
(2.9 5.22522e-14 0)
(2.9 2.75317e-15 0)
(2.9 3.95807e-14 0)
(2.9 4.05778e-15 0)
(2.9 -1.84342e-14 0)
(2.9 -4.20229e-17 0)
(2.9 1.16509e-14 0)
(2.9 -9.75431e-14 0)
(2.9 -4.31863e-14 0)
(2.9 -3.01804e-15 0)
(2.9 2.49119e-15 0)
(2.9 2.36492e-14 0)
(2.9 2.17883e-14 0)
(2.9 3.38721e-15 0)
(2.9 -2.85239e-14 0)
(2.9 7.68651e-15 0)
(2.9 1.55236e-14 0)
(2.9 2.47876e-14 0)
(2.9 -2.53145e-14 0)
(2.9 -7.83025e-14 0)
(2.9 -6.34843e-14 0)
(2.9 -5.73141e-14 0)
(2.9 -2.71547e-15 0)
(2.9 -1.29354e-15 0)
(2.9 -1.64353e-14 0)
(2.9 1.28781e-14 0)
(2.9 -1.89163e-14 0)
(2.9 -5.60182e-14 0)
(2.9 -4.93174e-14 0)
(2.9 -5.23218e-14 0)
(2.9 2.56393e-14 0)
(2.9 2.47772e-14 0)
(2.9 1.20797e-16 0)
(2.9 -3.51254e-14 0)
(2.9 -4.78436e-14 0)
(2.9 -3.9326e-14 0)
(2.9 -7.17109e-15 0)
(2.9 -5.12973e-14 0)
(2.9 7.67096e-14 0)
(2.9 4.1843e-14 0)
(2.9 1.21104e-14 0)
(2.9 -2.86705e-14 0)
(2.9 -1.55209e-14 0)
(2.9 1.80785e-16 0)
(2.9 -2.76922e-14 0)
(2.9 9.32021e-15 0)
(2.9 -1.13599e-14 0)
(2.9 1.53704e-14 0)
(2.9 -5.3745e-15 0)
(2.9 9.85132e-15 0)
(2.9 -2.47999e-14 0)
(2.9 -1.64973e-14 0)
(2.9 -2.04327e-14 0)
(2.9 -1.26863e-14 0)
(2.9 -3.07843e-14 0)
(2.9 -2.30044e-14 0)
(2.9 4.4333e-14 0)
(2.9 5.72305e-14 0)
(2.9 7.95335e-14 0)
(2.9 9.61472e-16 0)
(2.9 7.85541e-15 0)
(2.9 -1.94015e-14 0)
(2.9 7.16798e-14 0)
(2.9 2.35838e-14 0)
(2.9 -4.75705e-16 0)
(2.9 -1.33439e-14 0)
(2.9 -1.86447e-14 0)
(2.9 -8.56511e-14 0)
(2.9 -2.78633e-15 0)
(2.9 2.33246e-14 0)
(2.9 -1.95989e-14 0)
(2.9 5.92977e-14 0)
(2.9 -3.26076e-15 0)
(2.9 -3.90215e-14 0)
(2.9 -3.24189e-14 0)
(2.9 1.03756e-14 0)
(2.9 -9.52546e-15 0)
(2.9 2.5808e-14 0)
(2.9 -5.18983e-14 0)
(2.9 1.87314e-14 0)
(2.9 -4.55848e-14 0)
(2.9 -4.61515e-14 0)
(2.9 -6.64101e-15 0)
(2.9 -9.71884e-15 0)
(2.9 -2.73017e-14 0)
(2.9 1.53956e-14 0)
(2.9 -1.38877e-14 0)
(2.9 -3.7675e-14 0)
(2.9 -4.57972e-14 0)
(2.9 2.84606e-15 0)
(2.9 1.85159e-14 0)
(2.9 3.44703e-14 0)
(2.9 -1.26078e-14 0)
(2.9 -4.56506e-14 0)
(2.9 -5.57059e-14 0)
(2.9 -6.03761e-14 0)
(2.9 8.29737e-15 0)
(2.9 1.44873e-14 0)
(2.9 9.58351e-14 0)
(2.9 4.43476e-14 0)
(2.9 1.08239e-14 0)
(2.9 -2.6255e-14 0)
(2.9 -4.70429e-14 0)
(2.9 1.89078e-15 0)
(2.9 -7.72551e-14 0)
(2.9 8.71921e-15 0)
(2.9 -3.63863e-15 0)
(2.9 3.30953e-14 0)
(2.9 1.36371e-14 0)
(2.9 -3.18003e-14 0)
(2.9 -8.7049e-14 0)
(2.9 -9.68243e-14 0)
(2.9 -3.69273e-14 0)
(2.9 -5.23375e-14 0)
(2.9 -3.5449e-14 0)
(2.9 2.36477e-14 0)
(2.9 1.75262e-14 0)
(2.9 4.30828e-14 0)
(2.9 7.67566e-14 0)
(2.9 1.54631e-14 0)
(2.9 -1.95034e-14 0)
(2.9 -1.78025e-14 0)
(2.9 2.51934e-14 0)
(2.9 -8.53464e-17 0)
(2.9 -2.05432e-14 0)
(2.9 -8.07917e-15 0)
(2.9 1.89662e-14 0)
(2.9 1.65891e-14 0)
(2.9 2.54328e-14 0)
(2.9 -3.29538e-14 0)
(2.9 4.48618e-14 0)
(2.9 -1.94354e-14 0)
(2.9 -4.02711e-15 0)
(2.9 1.23406e-14 0)
(2.9 7.42336e-14 0)
(2.9 2.23077e-14 0)
(2.9 2.00758e-14 0)
(2.9 1.33745e-14 0)
(2.9 -1.67492e-14 0)
(2.9 3.05783e-14 0)
(2.9 -2.77834e-15 0)
(2.9 -5.77247e-14 0)
(2.9 -2.66988e-14 0)
(2.9 -3.00431e-14 0)
(2.9 6.05606e-14 0)
(2.9 3.38165e-14 0)
(2.9 3.2748e-15 0)
(2.9 -5.3918e-14 0)
(2.9 1.88446e-14 0)
(2.9 1.37653e-13 0)
(2.9 8.54487e-14 0)
(2.9 -5.54863e-15 0)
(2.9 -3.32628e-14 0)
(2.9 -6.88613e-14 0)
(2.9 -6.32294e-14 0)
(2.9 -1.8476e-14 0)
(2.9 4.83556e-14 0)
(2.9 1.07514e-13 0)
(2.9 4.62245e-14 0)
(2.9 -1.41599e-14 0)
(2.9 1.93498e-14 0)
(2.9 -3.37698e-14 0)
(2.9 -4.49307e-14 0)
(2.9 -7.46949e-14 0)
(2.9 -7.17763e-14 0)
(2.9 -9.51793e-14 0)
(2.9 2.09166e-14 0)
(2.9 1.4402e-13 0)
(2.9 4.5119e-14 0)
(2.9 -1.58565e-14 0)
(2.9 -5.97e-14 0)
(2.9 -6.93001e-14 0)
(2.9 -1.67039e-14 0)
(2.9 -5.12269e-14 0)
(2.9 -2.09638e-14 0)
(2.9 7.47247e-14 0)
(2.9 9.06314e-15 0)
(2.9 3.28983e-16 0)
(2.9 4.60084e-14 0)
(2.9 5.494e-14 0)
(2.9 -2.84464e-14 0)
(2.9 -3.24867e-14 0)
(2.9 -6.82721e-14 0)
(2.9 -6.35626e-14 0)
(2.9 -5.44081e-14 0)
(2.9 3.63693e-14 0)
(2.9 2.53728e-14 0)
(2.9 9.08966e-14 0)
(2.9 4.94184e-14 0)
(2.9 -5.12325e-14 0)
(2.9 5.78097e-14 0)
(2.9 6.67423e-14 0)
(2.9 -3.56461e-14 0)
(2.9 5.88315e-14 0)
(2.9 3.68724e-14 0)
(2.9 -5.14624e-16 0)
(2.9 4.28822e-14 0)
(2.9 2.63458e-14 0)
(2.9 -1.2587e-14 0)
(2.9 1.37938e-14 0)
(2.9 -4.79657e-14 0)
(2.9 -4.29858e-14 0)
(2.9 -1.18177e-14 0)
(2.9 -2.45762e-15 0)
(2.9 5.10459e-14 0)
(2.9 7.15286e-15 0)
(2.9 1.6316e-14 0)
(2.9 2.48556e-14 0)
(2.9 3.96077e-14 0)
(2.9 8.7634e-14 0)
(2.9 -1.73595e-14 0)
(2.9 1.39701e-14 0)
(2.9 -1.95004e-14 0)
(2.9 -7.78903e-14 0)
(2.9 -4.87186e-14 0)
(2.9 -4.94889e-14 0)
(2.9 -5.86265e-14 0)
(2.9 1.74131e-14 0)
(2.9 3.97119e-16 0)
(2.9 -7.16854e-14 0)
(2.9 -3.3208e-14 0)
(2.9 -5.81181e-14 0)
(2.9 -6.01498e-14 0)
(2.9 -6.55392e-14 0)
(2.9 -2.89662e-14 0)
(2.9 -8.60497e-14 0)
(2.9 3.88876e-14 0)
(2.9 9.37899e-14 0)
(2.9 1.72873e-14 0)
(2.9 1.98869e-14 0)
(2.9 -4.13001e-14 0)
(2.9 -5.59398e-14 0)
(2.9 -1.03154e-13 0)
(2.9 1.12408e-14 0)
(2.9 2.1118e-14 0)
(2.9 6.15298e-14 0)
(2.9 1.96476e-14 0)
(2.9 -2.89902e-14 0)
(2.9 -2.06662e-14 0)
(2.9 2.73985e-14 0)
(2.9 1.03047e-15 0)
(2.9 5.5002e-14 0)
(2.9 -1.9283e-14 0)
(2.9 4.16489e-14 0)
(2.9 4.08037e-14 0)
(2.9 3.43539e-14 0)
(2.9 1.45106e-14 0)
(2.9 8.35154e-14 0)
(2.9 -1.05068e-14 0)
(2.9 -1.08672e-14 0)
(2.9 1.04654e-15 0)
(2.9 1.02921e-13 0)
(2.9 1.33367e-14 0)
(2.9 6.58659e-14 0)
(2.9 8.27703e-14 0)
(2.9 7.60731e-14 0)
(2.9 4.88063e-14 0)
(2.9 3.06754e-14 0)
(2.9 -5.56082e-14 0)
(2.9 1.25349e-14 0)
(2.9 -6.49268e-14 0)
(2.9 2.59738e-14 0)
(2.9 4.49952e-16 0)
(2.9 2.01728e-14 0)
(2.9 2.75443e-14 0)
(2.9 -2.09045e-14 0)
(2.9 2.23793e-14 0)
(2.9 7.17116e-14 0)
(2.9 7.629e-15 0)
(2.9 9.75064e-14 0)
(2.9 -5.97392e-14 0)
(2.9 -6.85195e-14 0)
(2.9 -4.24922e-14 0)
(2.9 -5.66439e-14 0)
(2.9 -5.86606e-14 0)
(2.9 -5.50478e-14 0)
(2.9 -9.36295e-14 0)
(2.9 -7.35827e-15 0)
(2.9 -2.07465e-14 0)
(2.9 -6.38173e-14 0)
(2.9 -1.49254e-14 0)
(2.9 2.98942e-14 0)
(2.9 -9.60796e-14 0)
(2.9 -5.28803e-14 0)
(2.9 1.02111e-14 0)
(2.9 -6.32792e-14 0)
(2.9 -8.34796e-15 0)
(2.9 3.46081e-14 0)
(2.9 -2.2146e-14 0)
(2.9 -1.60267e-14 0)
(2.9 -3.64159e-14 0)
(2.9 -5.27587e-14 0)
(2.9 -5.00905e-14 0)
(2.9 -5.26743e-15 0)
(2.9 2.29969e-15 0)
(2.9 1.22272e-14 0)
(2.9 1.95181e-14 0)
(2.9 2.94836e-14 0)
(2.9 -3.65622e-14 0)
(2.9 -3.59815e-14 0)
(2.9 -4.57464e-15 0)
(2.9 8.6698e-14 0)
(2.9 9.7231e-14 0)
(2.9 5.58773e-14 0)
(2.9 8.61984e-14 0)
(2.9 9.94917e-16 0)
(2.9 3.16283e-15 0)
(2.9 7.81985e-14 0)
(2.9 6.70379e-15 0)
(2.9 4.13911e-14 0)
(2.9 -4.98525e-14 0)
(2.9 3.15812e-14 0)
(2.9 4.10125e-14 0)
(2.9 5.16656e-14 0)
(2.9 3.46667e-14 0)
(2.9 3.67405e-14 0)
(2.9 -5.96937e-15 0)
(2.9 -2.37727e-14 0)
(2.9 2.09369e-14 0)
(2.9 2.17075e-14 0)
(2.9 -3.81927e-14 0)
(2.9 -5.10032e-14 0)
(2.9 -4.447e-14 0)
(2.9 -9.34783e-15 0)
(2.9 -4.49535e-14 0)
(2.9 2.04157e-15 0)
(2.9 -1.25424e-15 0)
(2.9 4.62765e-14 0)
(2.9 7.84478e-16 0)
(2.9 3.65135e-14 0)
(2.9 -3.70876e-15 0)
(2.9 -3.02835e-14 0)
(2.9 -2.34363e-14 0)
(2.9 7.30812e-14 0)
(2.9 -4.82525e-15 0)
(2.9 -1.4611e-14 0)
(2.9 3.425e-15 0)
(2.9 -1.2138e-15 0)
(2.9 -2.54925e-14 0)
(2.9 -6.37785e-14 0)
(2.9 -5.38302e-14 0)
(2.9 8.26855e-14 0)
(2.9 3.12592e-15 0)
(2.9 -3.60246e-14 0)
(2.9 -8.01919e-14 0)
(2.9 -3.92399e-14 0)
(2.9 -5.56111e-14 0)
(2.9 -6.0378e-14 0)
(2.9 -8.13411e-14 0)
(2.9 -4.77473e-14 0)
(2.9 4.52552e-14 0)
(2.9 -8.20034e-14 0)
(2.9 2.90387e-14 0)
(2.9 -5.12507e-14 0)
(2.9 -8.08504e-14 0)
(2.9 -4.03441e-14 0)
(2.9 -6.11e-15 0)
(2.9 5.77464e-15 0)
(2.9 -5.2628e-14 0)
(2.9 -6.51856e-15 0)
(2.9 -3.6672e-14 0)
(2.9 1.03671e-14 0)
(2.9 2.59959e-14 0)
(2.9 7.93473e-14 0)
(2.9 2.0266e-14 0)
(2.9 4.19499e-14 0)
(2.9 5.841e-14 0)
(2.9 1.71604e-14 0)
(2.9 -2.55089e-15 0)
(2.9 -1.42201e-14 0)
(2.9 -2.05251e-14 0)
(2.9 -2.38262e-14 0)
(2.9 4.4433e-15 0)
(2.9 2.97901e-14 0)
(2.9 -3.58339e-16 0)
(2.9 7.67709e-15 0)
(2.9 -3.5645e-14 0)
(2.9 -1.25046e-14 0)
(2.9 1.25488e-15 0)
(2.9 4.9152e-14 0)
(2.9 1.5784e-14 0)
(2.9 -1.25082e-13 0)
(2.9 -3.08677e-14 0)
(2.9 -1.66467e-14 0)
(2.9 -1.16392e-13 0)
(2.9 -7.94714e-15 0)
(2.9 -2.29478e-14 0)
(2.9 2.23726e-14 0)
(2.9 5.12217e-14 0)
(2.9 -1.89279e-15 0)
(2.9 1.06946e-14 0)
(2.9 -3.83096e-16 0)
(2.9 4.96258e-14 0)
(2.9 9.41516e-14 0)
(2.9 2.62142e-14 0)
(2.9 1.12615e-14 0)
(2.9 -2.26293e-14 0)
(2.9 5.75712e-15 0)
(2.9 -2.76311e-14 0)
(2.9 -4.99497e-14 0)
(2.9 -2.83847e-14 0)
(2.9 5.34908e-14 0)
(2.9 4.25814e-14 0)
(2.9 -8.74808e-14 0)