/*--------------------------------*- C++ -*----------------------------------*\
| =========                 |                                                 |
| \\      /  F ield         | OpenFOAM: The Open Source CFD Toolbox           |
|  \\    /   O peration     | Version:  2412                                  |
|   \\  /    A nd           | Website:  www.openfoam.com                      |
|    \\/     M anipulation  |                                                 |
\*---------------------------------------------------------------------------*/
FoamFile
{
    version     2.0;
    format      ascii;
    arch        "LSB;label=32;scalar=64";
    class       surfaceScalarField;
    location    "0.0398855";
    object      phiRhoY_Y_N2;
}
// * * * * * * * * * * * * * * * * * * * * * * * * * * * * * * * * * * * * * //

dimensions      [1 0 -1 0 0 0 0];

internalField   nonuniform List<scalar> 
99
(
3.10805
6.28838
9.56131
12.9605
16.4364
19.9255
23.4019
26.8398
30.2093
33.4848
36.6788
39.8745
43.1221
46.4199
49.7703
53.1524
56.5352
59.9165
63.2987
66.6605
69.9789
73.3887
77.6844
78.5281
-14.8763
-452.35
-494.189
-474.945
-460.335
-450.487
-422.292
-403.371
-402.346
-403.541
-432.585
-456.571
-460.028
-462.072
-456.193
-413.145
-369.705
-357.917
-356.785
-365.09
-387.948
-400.343
-403.328
-405.14
-399.29
-376.404
-366.365
-365.311
-372.661
-377.3
-376.188
-354.993
-332.819
-327.943
-328.552
-340.225
-343.974
-340.47
-315.608
-295.409
-289.335
-291.456
-317.756
-330.77
-330.227
-312.586
-270.352
-236.314
-232.808
-235.474
-241.996
-249.649
-252.677
-248.704
-239.966
-229.364
-219.747
-212.415
-202.851
-190.01
-181.968
-180.721
-179.481
-148.1
-82.2118
-31.1095
-8.72625
-2.05334
-0.434028
-0.0896077
-0.0134734
-0.00106106
-4.26926e-05
0
0
)
;

boundaryField
{
    sides
    {
        type            calculated;
        value           uniform 0;
    }
    empty
    {
        type            empty;
    }
}


// ************************************************************************* //
