/*--------------------------------*- C++ -*----------------------------------*\
| =========                 |                                                 |
| \\      /  F ield         | OpenFOAM: The Open Source CFD Toolbox           |
|  \\    /   O peration     | Version:  2412                                  |
|   \\  /    A nd           | Website:  www.openfoam.com                      |
|    \\/     M anipulation  |                                                 |
\*---------------------------------------------------------------------------*/
FoamFile
{
    version     2.0;
    format      ascii;
    arch        "LSB;label=32;scalar=64";
    class       volVectorField;
    location    "5.88275e-05";
    object      U;
}
// * * * * * * * * * * * * * * * * * * * * * * * * * * * * * * * * * * * * * //

dimensions      [0 1 -1 0 0 0 0];

internalField   nonuniform List<vector> 
1800
(
(2.9 2.52943e-15 0)
(2.9 3.75317e-14 0)
(2.9 -8.41128e-15 0)
(2.9 2.81883e-14 0)
(2.9 2.00245e-14 0)
(2.9 -3.60403e-15 0)
(2.9 -1.17397e-14 0)
(2.9 -3.63154e-15 0)
(2.9 1.34159e-15 0)
(2.9 2.12566e-14 0)
(2.9 1.92647e-14 0)
(2.9 2.75269e-14 0)
(2.9 3.85314e-15 0)
(2.9 -3.25773e-15 0)
(2.9 -2.69385e-14 0)
(2.9 -9.47972e-15 0)
(2.9 1.57612e-15 0)
(2.9 -1.7668e-14 0)
(2.9 -3.85829e-14 0)
(2.9 -8.23689e-15 0)
(2.9 1.20793e-15 0)
(2.9 -3.77361e-14 0)
(2.9 5.3348e-15 0)
(2.9 -3.25251e-14 0)
(2.9 1.26729e-14 0)
(2.9 -8.21936e-15 0)
(2.9 -2.005e-14 0)
(2.9 -7.85486e-16 0)
(2.9 -5.30626e-15 0)
(2.9 -1.28229e-14 0)
(2.9 -1.25221e-14 0)
(2.9 -1.0201e-14 0)
(2.9 -1.47009e-15 0)
(2.9 -1.34786e-14 0)
(2.9 -5.33591e-15 0)
(2.9 -2.47951e-14 0)
(2.9 -1.04859e-14 0)
(2.9 -2.88384e-15 0)
(2.9 -3.60095e-14 0)
(2.9 -2.34335e-14 0)
(2.9 -8.62632e-15 0)
(2.9 -9.38911e-15 0)
(2.9 -4.28694e-15 0)
(2.9 4.35557e-14 0)
(2.9 -1.80618e-14 0)
(2.9 -1.57264e-14 0)
(2.9 -1.31303e-14 0)
(2.9 -7.99732e-15 0)
(2.9 -2.37741e-14 0)
(2.9 -2.8007e-14 0)
(2.9 -1.89289e-14 0)
(2.9 -2.58795e-14 0)
(2.9 -7.97337e-15 0)
(2.9 -4.04574e-14 0)
(2.9 -2.33932e-14 0)
(2.9 -7.86568e-15 0)
(2.9 -5.84523e-15 0)
(2.9 -2.3734e-14 0)
(2.9 4.06449e-14 0)
(2.9 -8.2795e-15 0)
(2.9 1.5128e-14 0)
(2.9 -1.87356e-16 0)
(2.9 -4.95572e-14 0)
(2.9 -1.11731e-15 0)
(2.9 1.59717e-14 0)
(2.9 -2.12195e-14 0)
(2.9 -1.59822e-14 0)
(2.9 -1.20159e-14 0)
(2.9 7.28891e-15 0)
(2.9 -2.47716e-14 0)
(2.9 1.0284e-14 0)
(2.9 -1.30196e-14 0)
(2.9 5.30923e-15 0)
(2.9 3.03781e-14 0)
(2.9 1.22005e-14 0)
(2.9 2.91473e-14 0)
(2.9 1.141e-14 0)
(2.9 -5.0624e-14 0)
(2.9 -3.87339e-14 0)
(2.9 -1.7376e-14 0)
(2.9 -5.77918e-15 0)
(2.9 -4.76869e-14 0)
(2.9 8.08208e-15 0)
(2.9 -4.27117e-14 0)
(2.9 -3.54814e-15 0)
(2.9 -5.60058e-14 0)
(2.9 -2.5257e-14 0)
(2.9 -6.55971e-16 0)
(2.9 -1.78225e-14 0)
(2.9 -5.30826e-14 0)
(2.9 -5.47753e-14 0)
(2.9 -3.74698e-14 0)
(2.9 -1.22073e-14 0)
(2.9 -6.70331e-14 0)
(2.9 -1.76203e-14 0)
(2.9 -3.99931e-14 0)
(2.9 -2.96634e-14 0)
(2.9 -1.17372e-15 0)
(2.9 1.55858e-15 0)
(2.9 -2.18808e-14 0)
(2.9 -2.75557e-14 0)
(2.9 -3.589e-14 0)
(2.9 -2.3495e-14 0)
(2.9 2.42037e-14 0)
(2.9 -6.67562e-14 0)
(2.9 -6.4361e-14 0)
(2.9 -5.56395e-14 0)
(2.9 -6.89933e-14 0)
(2.9 -8.36352e-14 0)
(2.9 -5.37189e-14 0)
(2.9 -3.34219e-14 0)
(2.9 -3.31196e-14 0)
(2.9 -1.54764e-14 0)
(2.9 -4.841e-14 0)
(2.9 -2.69372e-14 0)
(2.9 -2.61773e-14 0)
(2.9 -1.45292e-14 0)
(2.9 -2.07082e-14 0)
(2.9 -8.58471e-16 0)
(2.9 -3.1538e-14 0)
(2.9 1.49482e-15 0)
(2.9 8.09361e-15 0)
(2.9 -4.74783e-14 0)
(2.9 -3.82801e-14 0)
(2.9 2.23496e-14 0)
(2.9 -4.61182e-14 0)
(2.9 -2.68902e-14 0)
(2.9 -2.18558e-14 0)
(2.9 3.6437e-15 0)
(2.9 2.44983e-14 0)
(2.9 2.64815e-14 0)
(2.9 3.01557e-14 0)
(2.9 5.18541e-14 0)
(2.9 4.43313e-14 0)
(2.9 5.14323e-14 0)
(2.9 6.18158e-14 0)
(2.9 5.3298e-14 0)
(2.9 2.59613e-16 0)
(2.9 1.25617e-14 0)
(2.9 -6.57073e-15 0)
(2.9 -4.17148e-14 0)
(2.9 -3.26963e-14 0)
(2.9 4.40513e-14 0)
(2.9 3.56036e-14 0)
(2.9 -1.69574e-14 0)
(2.9 1.85549e-14 0)
(2.9 -1.20105e-14 0)
(2.9 8.41422e-15 0)
(2.9 4.26566e-14 0)
(2.9 -1.98927e-14 0)
(2.9 -7.79114e-14 0)
(2.9 -9.76974e-14 0)
(2.9 -7.28212e-14 0)
(2.9 -7.26833e-14 0)
(2.9 -4.03592e-14 0)
(2.9 -2.00643e-14 0)
(2.9 -4.48007e-14 0)
(2.9 -6.85567e-14 0)
(2.9 -3.21192e-14 0)
(2.9 -2.31749e-14 0)
(2.9 -7.10315e-14 0)
(2.9 -4.83212e-14 0)
(2.9 -6.81597e-14 0)
(2.9 -3.95886e-14 0)
(2.9 -4.80194e-14 0)
(2.9 -7.07586e-14 0)
(2.9 -1.12819e-13 0)
(2.9 -6.95033e-14 0)
(2.9 -5.14138e-14 0)
(2.9 -8.86937e-15 0)
(2.9 -1.23288e-14 0)
(2.9 5.01777e-15 0)
(2.9 -9.38964e-15 0)
(2.9 -4.41053e-14 0)
(2.9 -1.26962e-14 0)
(2.9 -1.35041e-14 0)
(2.9 -4.01262e-14 0)
(2.9 -5.24483e-14 0)
(2.9 2.69421e-15 0)
(2.9 2.92741e-14 0)
(2.9 1.09973e-14 0)
(2.9 -2.16992e-14 0)
(2.9 -2.97484e-14 0)
(2.9 1.71468e-14 0)
(2.9 -3.53841e-14 0)
(2.9 -4.61786e-15 0)
(2.9 -5.25946e-14 0)
(2.9 -5.65841e-14 0)
(2.9 8.41669e-15 0)
(2.9 2.43492e-14 0)
(2.9 4.54829e-14 0)
(2.9 -7.51738e-15 0)
(2.9 -1.72054e-14 0)
(2.9 -1.03864e-14 0)
(2.9 -8.11945e-15 0)
(2.9 1.15348e-14 0)
(2.9 3.08891e-14 0)
(2.9 4.73043e-15 0)
(2.9 1.95953e-14 0)
(2.9 2.01203e-15 0)
(2.9 -5.56378e-14 0)
(2.9 -4.55285e-14 0)
(2.9 1.9867e-14 0)
(2.9 2.74598e-14 0)
(2.9 -9.06708e-15 0)
(2.9 5.23432e-15 0)
(2.9 1.00348e-14 0)
(2.9 9.88616e-15 0)
(2.9 6.34639e-15 0)
(2.9 -4.37662e-15 0)
(2.9 -6.45149e-14 0)
(2.9 -4.55414e-14 0)
(2.9 -4.5067e-14 0)
(2.9 -4.51208e-14 0)
(2.9 -2.48525e-14 0)
(2.9 -1.13527e-14 0)
(2.9 -2.9243e-14 0)
(2.9 -1.43851e-14 0)
(2.9 -2.36756e-14 0)
(2.9 -1.59833e-14 0)
(2.9 -2.2859e-14 0)
(2.9 -2.71047e-14 0)
(2.9 -1.58702e-14 0)
(2.9 -7.76376e-15 0)
(2.9 3.30318e-14 0)
(2.9 -2.70393e-15 0)
(2.9 -4.96329e-14 0)
(2.9 -4.03074e-14 0)
(2.9 6.72903e-15 0)
(2.9 -3.13964e-14 0)
(2.9 -3.38984e-15 0)
(2.9 -7.17096e-15 0)
(2.9 -3.617e-14 0)
(2.9 -3.84314e-14 0)
(2.9 -8.84036e-15 0)
(2.9 -1.59341e-14 0)
(2.9 -1.91649e-14 0)
(2.9 -8.17096e-15 0)
(2.9 2.63957e-15 0)
(2.9 4.60266e-14 0)
(2.9 -1.69228e-15 0)
(2.9 -8.40736e-14 0)
(2.9 -1.83988e-14 0)
(2.9 -3.27593e-14 0)
(2.9 -9.68594e-15 0)
(2.9 2.1292e-14 0)
(2.9 1.37734e-14 0)
(2.9 2.35057e-14 0)
(2.9 3.11621e-15 0)
(2.9 4.57564e-14 0)
(2.9 1.00359e-14 0)
(2.9 -6.11732e-14 0)
(2.9 -4.20218e-14 0)
(2.9 -3.68289e-14 0)
(2.9 -8.41346e-14 0)
(2.9 -1.57167e-14 0)
(2.9 -8.64837e-17 0)
(2.9 -4.73529e-15 0)
(2.9 -8.06583e-15 0)
(2.9 -4.04514e-14 0)
(2.9 -2.17456e-14 0)
(2.9 -1.25921e-14 0)
(2.9 -2.66848e-14 0)
(2.9 -8.59147e-15 0)
(2.9 -1.18902e-14 0)
(2.9 -2.11066e-14 0)
(2.9 4.54968e-14 0)
(2.9 -1.79794e-14 0)
(2.9 -7.15627e-15 0)
(2.9 1.89834e-14 0)
(2.9 -5.36885e-14 0)
(2.9 -3.50634e-14 0)
(2.9 -1.42237e-14 0)
(2.9 -1.5722e-14 0)
(2.9 -2.42541e-14 0)
(2.9 -3.2458e-14 0)
(2.9 -1.48995e-14 0)
(2.9 2.19113e-14 0)
(2.9 -4.05176e-14 0)
(2.9 -2.62075e-14 0)
(2.9 -2.13327e-15 0)
(2.9 2.93907e-14 0)
(2.9 2.96398e-14 0)
(2.9 8.59937e-14 0)
(2.9 5.18708e-14 0)
(2.9 3.94306e-14 0)
(2.9 -8.88407e-15 0)
(2.9 -6.10409e-14 0)
(2.9 5.96284e-15 0)
(2.9 1.38147e-14 0)
(2.9 6.89484e-15 0)
(2.9 -1.837e-14 0)
(2.9 -2.8015e-14 0)
(2.9 -4.14849e-14 0)
(2.9 -6.34703e-14 0)
(2.9 -7.51393e-14 0)
(2.9 -2.75322e-14 0)
(2.9 5.70882e-14 0)
(2.9 5.31212e-14 0)
(2.9 -2.08075e-15 0)
(2.9 -7.36385e-15 0)
(2.9 1.04534e-14 0)
(2.9 -9.01656e-15 0)
(2.9 -8.83323e-14 0)
(2.9 6.19523e-14 0)
(2.9 -5.05672e-15 0)
(2.9 1.78296e-14 0)
(2.9 2.52032e-14 0)
(2.9 3.85546e-14 0)
(2.9 4.41706e-14 0)
(2.9 -4.32859e-14 0)
(2.9 -3.27022e-15 0)
(2.9 4.6416e-14 0)
(2.9 -3.5302e-14 0)
(2.9 1.25635e-14 0)
(2.9 1.61424e-16 0)
(2.9 -1.35447e-15 0)
(2.9 -1.5774e-14 0)
(2.9 -6.94157e-16 0)
(2.9 -5.0404e-16 0)
(2.9 -4.6656e-15 0)
(2.9 1.22148e-14 0)
(2.9 2.84337e-14 0)
(2.9 2.57128e-14 0)
(2.9 3.09026e-14 0)
(2.9 -1.61338e-14 0)
(2.9 3.21334e-14 0)
(2.9 -1.68097e-14 0)
(2.9 -1.36953e-14 0)
(2.9 4.75332e-14 0)
(2.9 7.58964e-15 0)
(2.9 4.59835e-14 0)
(2.9 2.9169e-14 0)
(2.9 -7.13014e-16 0)
(2.9 -1.19753e-14 0)
(2.9 -3.27636e-14 0)
(2.9 -2.16687e-14 0)
(2.9 2.72997e-14 0)
(2.9 3.12705e-14 0)
(2.9 -5.58675e-14 0)
(2.9 -5.39565e-15 0)
(2.9 -3.0529e-14 0)
(2.9 1.13742e-14 0)
(2.9 1.97643e-14 0)
(2.9 1.00673e-14 0)
(2.9 -3.47775e-14 0)
(2.9 -1.17944e-14 0)
(2.9 8.0844e-15 0)
(2.9 4.94289e-14 0)
(2.9 6.37775e-14 0)
(2.9 8.54388e-16 0)
(2.9 3.06091e-14 0)
(2.9 4.07284e-15 0)
(2.9 -1.14168e-14 0)
(2.9 -9.01877e-14 0)
(2.9 -1.14284e-14 0)
(2.9 -6.3165e-15 0)
(2.9 -3.17484e-14 0)
(2.9 3.49499e-15 0)
(2.9 -8.53386e-14 0)
(2.9 -1.05934e-14 0)
(2.9 2.76252e-14 0)
(2.9 2.22138e-14 0)
(2.9 -2.08854e-14 0)
(2.9 1.84779e-14 0)
(2.9 -1.73388e-17 0)
(2.9 1.05131e-14 0)
(2.9 -7.8336e-15 0)
(2.9 1.82154e-14 0)
(2.9 -7.95829e-16 0)
(2.9 3.96397e-14 0)
(2.9 3.71253e-14 0)
(2.9 1.68348e-14 0)
(2.9 -3.76748e-14 0)
(2.9 9.64251e-15 0)
(2.9 -9.58916e-15 0)
(2.9 -2.76078e-15 0)
(2.9 -3.9053e-14 0)
(2.9 3.26452e-14 0)
(2.9 8.28441e-14 0)
(2.9 2.06511e-14 0)
(2.9 1.66966e-14 0)
(2.9 -4.11138e-15 0)
(2.9 6.11199e-15 0)
(2.9 1.26003e-14 0)
(2.9 1.88661e-14 0)
(2.9 2.56523e-14 0)
(2.9 1.34101e-14 0)
(2.9 -5.75865e-14 0)
(2.9 -1.14122e-14 0)
(2.9 4.65336e-14 0)
(2.9 6.83791e-14 0)
(2.9 2.56337e-14 0)
(2.9 1.00125e-15 0)
(2.9 -3.82811e-14 0)
(2.9 -8.33868e-15 0)
(2.9 8.80975e-15 0)
(2.9 1.02325e-14 0)
(2.9 2.22458e-14 0)
(2.9 -9.59972e-15 0)
(2.9 7.4429e-14 0)
(2.9 -1.94226e-14 0)
(2.9 -1.34239e-14 0)
(2.9 -2.13952e-18 0)
(2.9 -4.61439e-16 0)
(2.9 -4.32797e-15 0)
(2.9 9.28679e-15 0)
(2.9 5.85441e-15 0)
(2.9 3.73495e-15 0)
(2.9 3.13034e-15 0)
(2.9 -1.57402e-14 0)
(2.9 5.34715e-16 0)
(2.9 2.48094e-14 0)
(2.9 9.72079e-15 0)
(2.9 4.28926e-15 0)
(2.9 4.62128e-14 0)
(2.9 -3.34412e-14 0)
(2.9 5.49533e-15 0)
(2.9 -4.47951e-14 0)
(2.9 -5.26758e-14 0)
(2.9 -1.46753e-15 0)
(2.9 3.57377e-14 0)
(2.9 -1.40637e-15 0)
(2.9 -1.24015e-14 0)
(2.9 2.00869e-14 0)
(2.9 -2.96364e-16 0)
(2.9 3.92852e-14 0)
(2.9 -1.15652e-14 0)
(2.9 1.60357e-14 0)
(2.9 1.92173e-14 0)
(2.9 4.1861e-14 0)
(2.9 4.54681e-14 0)
(2.9 2.64207e-14 0)
(2.9 -4.63656e-15 0)
(2.9 -1.46925e-14 0)
(2.9 -1.83826e-14 0)
(2.9 4.97642e-16 0)
(2.9 -1.00603e-14 0)
(2.9 2.15702e-14 0)
(2.9 5.77109e-14 0)
(2.9 4.29779e-14 0)
(2.9 1.0308e-14 0)
(2.9 -1.00127e-14 0)
(2.9 1.55653e-14 0)
(2.9 3.48712e-16 0)
(2.9 1.03645e-14 0)
(2.9 3.56175e-14 0)
(2.9 -2.5835e-14 0)
(2.9 -4.65517e-15 0)
(2.9 2.68408e-14 0)
(2.9 1.89914e-14 0)
(2.9 4.10997e-14 0)
(2.9 3.88082e-14 0)
(2.9 -2.71905e-15 0)
(2.9 -8.92163e-15 0)
(2.9 1.58526e-14 0)
(2.9 6.04693e-14 0)
(2.9 9.39543e-15 0)
(2.9 5.4231e-14 0)
(2.9 -3.71162e-14 0)
(2.9 7.36804e-14 0)
(2.9 7.57557e-14 0)
(2.9 5.57828e-14 0)
(2.9 -4.0114e-14 0)
(2.9 -7.83561e-15 0)
(2.9 6.03358e-15 0)
(2.9 5.1369e-15 0)
(2.9 6.38951e-15 0)
(2.9 -1.67293e-14 0)
(2.9 -1.03351e-14 0)
(2.9 3.72677e-14 0)
(2.9 9.06583e-15 0)
(2.9 1.96253e-14 0)
(2.9 2.73026e-14 0)
(2.9 8.00416e-14 0)
(2.9 4.06421e-14 0)
(2.9 -2.0989e-14 0)
(2.9 1.57476e-14 0)
(2.9 -5.37357e-14 0)
(2.9 -6.02252e-14 0)
(2.9 -1.07597e-14 0)
(2.9 2.69057e-14 0)
(2.9 -8.58215e-15 0)
(2.9 -3.08859e-14 0)
(2.9 7.61585e-15 0)
(2.9 1.42308e-14 0)
(2.9 -2.19136e-14 0)
(2.9 -2.34763e-15 0)
(2.9 2.36069e-14 0)
(2.9 4.0579e-14 0)
(2.9 3.62245e-14 0)
(2.9 1.64687e-14 0)
(2.9 5.54393e-14 0)
(2.9 6.9106e-14 0)
(2.9 1.89709e-15 0)
(2.9 -2.81933e-14 0)
(2.9 2.08247e-17 0)
(2.9 1.49442e-15 0)
(2.9 6.492e-15 0)
(2.9 -3.32445e-15 0)
(2.9 5.39003e-14 0)
(2.9 1.12791e-14 0)
(2.9 -1.43165e-14 0)
(2.9 3.05763e-15 0)
(2.9 5.4814e-14 0)
(2.9 3.14934e-14 0)
(2.9 1.81194e-14 0)
(2.9 -1.33999e-15 0)
(2.9 6.315e-14 0)
(2.9 2.53566e-14 0)
(2.9 1.13337e-14 0)
(2.9 5.94679e-16 0)
(2.9 2.27143e-14 0)
(2.9 5.24058e-14 0)
(2.9 1.94248e-14 0)
(2.9 5.44382e-14 0)
(2.9 3.06393e-14 0)
(2.9 3.55553e-16 0)
(2.9 2.79666e-14 0)
(2.9 -1.85477e-14 0)
(2.9 3.11295e-14 0)
(2.9 6.56448e-14 0)
(2.9 1.50653e-14 0)
(2.9 -4.34355e-14 0)
(2.9 -1.17879e-14 0)
(2.9 -2.79099e-14 0)
(2.9 -3.3423e-14 0)
(2.9 1.68731e-14 0)
(2.9 5.44422e-14 0)
(2.9 9.65868e-15 0)
(2.9 1.41125e-14 0)
(2.9 6.27129e-14 0)
(2.9 1.29695e-14 0)
(2.9 2.96487e-14 0)
(2.9 -2.57733e-14 0)
(2.9 2.84963e-14 0)
(2.9 6.02682e-14 0)
(2.9 -3.31353e-14 0)
(2.9 -2.84331e-14 0)
(2.9 -3.9052e-14 0)
(2.9 -5.48524e-14 0)
(2.9 -1.39303e-14 0)
(2.9 1.16291e-14 0)
(2.9 7.08476e-14 0)
(2.9 -2.87898e-14 0)
(2.9 2.93633e-14 0)
(2.9 -7.42602e-15 0)
(2.9 -1.54054e-14 0)
(2.9 3.19192e-14 0)
(2.9 3.43518e-14 0)
(2.9 4.99946e-14 0)
(2.9 -6.26937e-15 0)
(2.9 7.16281e-16 0)
(2.9 5.33798e-14 0)
(2.9 5.32887e-15 0)
(2.9 -2.71774e-14 0)
(2.9 2.93412e-15 0)
(2.9 5.11148e-14 0)
(2.9 -6.29799e-16 0)
(2.9 -3.38475e-14 0)
(2.9 3.81582e-14 0)
(2.9 5.06403e-14 0)
(2.9 -2.39711e-14 0)
(2.9 -1.90177e-14 0)
(2.9 2.94886e-14 0)
(2.9 1.24468e-14 0)
(2.9 -1.97392e-14 0)
(2.9 7.40114e-15 0)
(2.9 4.40434e-14 0)
(2.9 -2.85397e-14 0)
(2.9 -3.26169e-15 0)
(2.9 -6.0327e-14 0)
(2.9 -4.20076e-14 0)
(2.9 1.42809e-14 0)
(2.9 8.71434e-15 0)
(2.9 9.42145e-14 0)
(2.9 4.502e-14 0)
(2.9 -2.67088e-14 0)
(2.9 1.88446e-14 0)
(2.9 -8.138e-15 0)
(2.9 -4.92906e-15 0)
(2.9 2.81457e-14 0)
(2.9 -1.53105e-14 0)
(2.9 -7.58168e-14 0)
(2.9 -9.6931e-14 0)
(2.9 -5.04497e-14 0)
(2.9 5.34237e-14 0)
(2.9 3.71525e-14 0)
(2.9 3.1571e-14 0)
(2.9 -8.79634e-15 0)
(2.9 -2.18368e-15 0)
(2.9 3.67518e-14 0)
(2.9 -2.06851e-14 0)
(2.9 1.79753e-14 0)
(2.9 -8.06202e-15 0)
(2.9 -2.88477e-14 0)
(2.9 6.94345e-14 0)
(2.9 1.60572e-14 0)
(2.9 -1.09369e-15 0)
(2.9 1.69345e-14 0)
(2.9 -1.63292e-14 0)
(2.9 -1.245e-14 0)
(2.9 1.69674e-14 0)
(2.9 4.66319e-14 0)
(2.9 6.70808e-15 0)
(2.9 9.91355e-14 0)
(2.9 5.02026e-14 0)
(2.9 4.36678e-14 0)
(2.9 -9.76982e-15 0)
(2.9 2.42969e-14 0)
(2.9 -1.46006e-14 0)
(2.9 -5.96757e-14 0)
(2.9 -2.30374e-14 0)
(2.9 -4.31854e-14 0)
(2.9 5.40561e-14 0)
(2.9 3.5735e-14 0)
(2.9 -1.50404e-15 0)
(2.9 2.98706e-14 0)
(2.9 4.41451e-14 0)
(2.9 -1.08664e-14 0)
(2.9 2.51113e-14 0)
(2.9 2.09488e-14 0)
(2.9 -2.38875e-15 0)
(2.9 -6.1822e-14 0)
(2.9 2.05679e-15 0)
(2.9 4.72879e-15 0)
(2.9 -3.42238e-14 0)
(2.9 -1.81992e-14 0)
(2.9 -5.4664e-15 0)
(2.9 -2.04424e-14 0)
(2.9 -9.47556e-15 0)
(2.9 -8.12067e-14 0)
(2.9 -4.46156e-14 0)
(2.9 -3.37449e-14 0)
(2.9 2.99616e-14 0)
(2.9 1.04253e-13 0)
(2.9 1.82206e-14 0)
(2.9 -3.95939e-14 0)
(2.9 -2.8462e-14 0)
(2.9 6.5317e-15 0)
(2.9 -4.04083e-14 0)
(2.9 -2.34034e-14 0)
(2.9 1.36517e-14 0)
(2.9 -8.12308e-14 0)
(2.9 -4.36727e-14 0)
(2.9 1.70213e-14 0)
(2.9 4.63898e-14 0)
(2.9 3.48112e-14 0)
(2.9 3.59516e-15 0)
(2.9 -1.16845e-14 0)
(2.9 -2.35793e-14 0)
(2.9 3.761e-15 0)
(2.9 1.31478e-14 0)
(2.9 -1.01588e-14 0)
(2.9 3.91093e-14 0)
(2.9 1.92187e-14 0)
(2.9 3.11231e-14 0)
(2.9 8.20833e-14 0)
(2.9 7.20178e-14 0)
(2.9 8.07963e-14 0)
(2.9 8.72899e-15 0)
(2.9 4.03854e-15 0)
(2.9 2.58425e-14 0)
(2.9 2.67166e-16 0)
(2.9 2.27662e-14 0)
(2.9 -7.64135e-15 0)
(2.9 -3.31101e-15 0)
(2.9 1.51932e-14 0)
(2.9 3.74301e-15 0)
(2.9 -6.8628e-14 0)
(2.9 -3.50035e-14 0)
(2.9 -8.11242e-15 0)
(2.9 -2.41574e-14 0)
(2.9 1.08159e-14 0)
(2.9 1.90598e-15 0)
(2.9 1.38227e-14 0)
(2.9 4.89442e-14 0)
(2.9 5.28519e-14 0)
(2.9 3.98026e-14 0)
(2.9 3.15219e-14 0)
(2.9 -1.90135e-15 0)
(2.9 2.40962e-14 0)
(2.9 -7.27328e-14 0)
(2.9 -1.99445e-14 0)
(2.9 -3.24842e-14 0)
(2.9 -1.34696e-14 0)
(2.9 -1.26139e-14 0)
(2.9 1.20786e-14 0)
(2.9 2.15465e-14 0)
(2.9 3.40739e-14 0)
(2.9 -2.28545e-14 0)
(2.9 -1.21651e-14 0)
(2.9 -2.08024e-14 0)
(2.9 -2.20703e-15 0)
(2.9 4.80698e-14 0)
(2.9 -2.16453e-14 0)
(2.9 -1.88578e-14 0)
(2.9 3.75137e-14 0)
(2.9 -2.87304e-14 0)
(2.9 5.04062e-14 0)
(2.9 -2.33701e-14 0)
(2.9 4.76635e-15 0)
(2.9 1.83468e-14 0)
(2.9 4.85613e-14 0)
(2.9 4.877e-14 0)
(2.9 -1.14845e-14 0)
(2.9 -1.29364e-14 0)
(2.9 4.67277e-14 0)
(2.9 2.20875e-14 0)
(2.9 6.24231e-14 0)
(2.9 4.32502e-14 0)
(2.9 -4.16187e-15 0)
(2.9 3.13687e-14 0)
(2.9 5.34112e-15 0)
(2.9 6.73157e-14 0)
(2.9 4.41142e-14 0)
(2.9 8.71261e-15 0)
(2.9 4.22935e-14 0)
(2.9 3.06161e-15 0)
(2.9 2.46327e-14 0)
(2.9 1.02049e-14 0)
(2.9 -5.2738e-15 0)
(2.9 7.21242e-14 0)
(2.9 4.40842e-14 0)
(2.9 -4.00892e-14 0)
(2.9 -4.14138e-14 0)
(2.9 -8.7109e-15 0)
(2.9 -2.19322e-14 0)
(2.9 4.59861e-15 0)
(2.9 -5.33099e-14 0)
(2.9 -2.85462e-14 0)
(2.9 1.24389e-15 0)
(2.9 6.71313e-15 0)
(2.9 7.06843e-14 0)
(2.9 -5.34023e-14 0)
(2.9 -1.38142e-14 0)
(2.9 2.85613e-14 0)
(2.9 3.96037e-14 0)
(2.9 -1.90152e-14 0)
(2.9 4.40815e-15 0)
(2.9 1.65861e-14 0)
(2.9 1.4499e-14 0)
(2.9 7.88328e-15 0)
(2.9 4.2625e-14 0)
(2.9 -3.60408e-14 0)
(2.9 1.16925e-14 0)
(2.9 -1.22496e-14 0)
(2.9 -8.11049e-15 0)
(2.9 5.23352e-15 0)
(2.9 9.69314e-16 0)
(2.9 -1.79676e-14 0)
(2.9 4.64935e-14 0)
(2.9 -9.67438e-16 0)
(2.9 1.93851e-14 0)
(2.9 -4.69091e-14 0)
(2.9 -4.43442e-14 0)
(2.9 -2.12777e-14 0)
(2.9 1.74965e-14 0)
(2.9 -4.39503e-15 0)
(2.9 -8.41499e-15 0)
(2.9 -3.98542e-15 0)
(2.9 1.86361e-14 0)
(2.9 -6.69896e-15 0)
(2.9 5.01853e-14 0)
(2.9 7.67934e-15 0)
(2.9 2.17854e-14 0)
(2.9 1.26579e-14 0)
(2.9 1.64657e-14 0)
(2.9 2.14492e-15 0)
(2.9 -4.66645e-16 0)
(2.9 2.62742e-14 0)
(2.9 -1.23716e-14 0)
(2.9 -1.09656e-14 0)
(2.9 3.22901e-15 0)
(2.9 -4.90953e-15 0)
(2.9 -3.5066e-14 0)
(2.9 2.655e-16 0)
(2.9 -1.939e-14 0)
(2.9 -3.89716e-14 0)
(2.9 -5.96637e-14 0)
(2.9 -1.76575e-14 0)
(2.9 -4.44018e-14 0)
(2.9 4.50367e-14 0)
(2.9 2.35202e-14 0)
(2.9 -2.32162e-14 0)
(2.9 4.69559e-15 0)
(2.9 -1.36337e-14 0)
(2.9 -7.96445e-14 0)
(2.9 2.57254e-15 0)
(2.9 -3.17602e-14 0)
(2.9 2.63882e-14 0)
(2.9 1.86056e-14 0)
(2.9 2.28981e-14 0)
(2.9 2.557e-14 0)
(2.9 -6.75576e-14 0)
(2.9 -4.66198e-14 0)
(2.9 -4.54043e-14 0)
(2.9 3.66603e-15 0)
(2.9 -3.70953e-14 0)
(2.9 -2.25723e-14 0)
(2.9 -3.59304e-15 0)
(2.9 2.94227e-14 0)
(2.9 7.63902e-14 0)
(2.9 3.85738e-14 0)
(2.9 -7.95351e-15 0)
(2.9 -1.40041e-14 0)
(2.9 1.64548e-15 0)
(2.9 1.61457e-14 0)
(2.9 6.37999e-14 0)
(2.9 1.35891e-14 0)
(2.9 -4.1184e-14 0)
(2.9 3.40683e-14 0)
(2.9 1.79555e-14 0)
(2.9 4.85384e-14 0)
(2.9 -2.7319e-15 0)
(2.9 -3.42773e-14 0)
(2.9 -1.24432e-14 0)
(2.9 -4.02395e-14 0)
(2.9 -9.82085e-15 0)
(2.9 -6.63503e-14 0)
(2.9 -5.89862e-14 0)
(2.9 -1.73016e-14 0)
(2.9 6.88042e-15 0)
(2.9 5.97217e-14 0)
(2.9 7.69696e-14 0)
(2.9 1.05363e-13 0)
(2.9 4.97926e-14 0)
(2.9 2.39016e-14 0)
(2.9 -4.97591e-14 0)
(2.9 -2.60198e-14 0)
(2.9 -7.9006e-14 0)
(2.9 -2.17784e-14 0)
(2.9 4.92351e-14 0)
(2.9 1.15425e-14 0)
(2.9 -2.1502e-14 0)
(2.9 -5.64621e-15 0)
(2.9 -5.83529e-14 0)
(2.9 -5.26573e-14 0)
(2.9 1.69801e-15 0)
(2.9 -2.35641e-14 0)
(2.9 9.38274e-15 0)
(2.9 -2.46199e-14 0)
(2.9 -4.19212e-14 0)
(2.9 -2.84628e-14 0)
(2.9 2.56178e-14 0)
(2.9 -2.85695e-15 0)
(2.9 3.39381e-14 0)
(2.9 1.67929e-15 0)
(2.9 -1.29373e-15 0)
(2.9 4.23575e-14 0)
(2.9 1.39831e-14 0)
(2.9 3.27641e-14 0)
(2.9 -1.17505e-14 0)
(2.9 -3.09128e-14 0)
(2.9 -2.9273e-14 0)
(2.9 4.86192e-15 0)
(2.9 -5.42629e-14 0)
(2.9 -1.33077e-15 0)
(2.9 -4.07131e-14 0)
(2.9 4.83908e-14 0)
(2.9 -4.2953e-14 0)
(2.9 -5.20213e-15 0)
(2.9 5.8709e-14 0)
(2.9 9.25087e-16 0)
(2.9 3.3166e-14 0)
(2.9 -2.41919e-14 0)
(2.9 -2.74572e-14 0)
(2.9 2.13909e-14 0)
(2.9 6.81476e-15 0)
(2.9 -1.03528e-14 0)
(2.9 -8.07931e-15 0)
(2.9 -7.77719e-15 0)
(2.9 2.27126e-14 0)
(2.9 3.37786e-14 0)
(2.9 2.71829e-14 0)
(2.9 -2.47955e-14 0)
(2.9 -1.17746e-14 0)
(2.9 -1.73337e-14 0)
(2.9 -1.39378e-14 0)
(2.9 -2.19812e-14 0)
(2.9 -3.23177e-14 0)
(2.9 -2.25939e-14 0)
(2.9 1.45119e-14 0)
(2.9 7.91422e-14 0)
(2.9 6.06851e-14 0)
(2.9 9.22573e-14 0)
(2.9 4.56827e-14 0)
(2.9 -1.68812e-14 0)
(2.9 -4.08142e-14 0)
(2.9 -1.50366e-14 0)
(2.9 -4.28998e-14 0)
(2.9 -2.05295e-14 0)
(2.9 1.07196e-14 0)
(2.9 4.22529e-15 0)
(2.9 4.91359e-14 0)
(2.9 5.36126e-14 0)
(2.9 -4.11978e-14 0)
(2.9 -5.86003e-14 0)
(2.9 -8.74106e-15 0)
(2.9 2.06973e-15 0)
(2.9 -4.3179e-14 0)
(2.9 1.48888e-14 0)
(2.9 -4.33249e-14 0)
(2.9 -1.50868e-14 0)
(2.9 5.82192e-14 0)
(2.9 2.35946e-14 0)
(2.9 1.82758e-14 0)
(2.9 4.81458e-14 0)
(2.9 2.8518e-15 0)
(2.9 3.10846e-14 0)
(2.9 -1.41998e-14 0)
(2.9 9.1402e-14 0)
(2.9 -4.14157e-15 0)
(2.9 -1.62179e-14 0)
(2.9 -2.9023e-14 0)
(2.9 1.40312e-14 0)
(2.9 -3.50436e-14 0)
(2.9 -5.56327e-14 0)
(2.9 -4.08265e-14 0)
(2.9 3.62202e-14 0)
(2.9 -7.93753e-14 0)
(2.9 -6.19489e-14 0)
(2.9 -2.70313e-14 0)
(2.9 -1.56723e-14 0)
(2.9 2.89907e-15 0)
(2.9 1.68013e-14 0)
(2.9 -5.48919e-14 0)
(2.9 -4.13633e-15 0)
(2.9 -4.68854e-14 0)
(2.9 -2.64719e-14 0)
(2.9 4.82356e-15 0)
(2.9 -3.13664e-14 0)
(2.9 -2.24442e-14 0)
(2.9 -1.47626e-14 0)
(2.9 -2.28286e-14 0)
(2.9 -6.30195e-14 0)
(2.9 -3.21967e-14 0)
(2.9 -7.69062e-15 0)
(2.9 -3.65452e-14 0)
(2.9 1.07087e-14 0)
(2.9 5.77858e-14 0)
(2.9 -3.35964e-14 0)
(2.9 4.18426e-15 0)
(2.9 4.5816e-14 0)
(2.9 5.98137e-14 0)
(2.9 4.65139e-14 0)
(2.9 8.83286e-14 0)
(2.9 -3.44394e-14 0)
(2.9 -4.27248e-14 0)
(2.9 -1.51898e-15 0)
(2.9 -2.63734e-15 0)
(2.9 -3.95843e-14 0)
(2.9 -2.01234e-14 0)
(2.9 -1.20248e-14 0)
(2.9 2.84851e-14 0)
(2.9 3.9645e-14 0)
(2.9 -2.16161e-14 0)
(2.9 -5.92568e-14 0)
(2.9 1.59015e-15 0)
(2.9 2.61015e-14 0)
(2.9 -3.31513e-15 0)
(2.9 9.40631e-14 0)
(2.9 -1.1048e-14 0)
(2.9 5.70641e-14 0)
(2.9 -8.48196e-15 0)
(2.9 -5.11874e-14 0)
(2.9 -4.01559e-15 0)
(2.9 4.04553e-14 0)
(2.9 -4.86352e-14 0)
(2.9 -6.25321e-14 0)
(2.9 1.7041e-14 0)
(2.9 1.54374e-14 0)
(2.9 5.85025e-14 0)
(2.9 2.24719e-14 0)
(2.9 -1.93518e-15 0)
(2.9 8.8746e-15 0)
(2.9 2.05032e-14 0)
(2.9 -3.3221e-14 0)
(2.9 -1.64481e-14 0)
(2.9 -4.58212e-14 0)
(2.9 -6.77152e-14 0)
(2.9 -7.2245e-14 0)
(2.9 -6.38457e-14 0)
(2.9 2.40005e-15 0)
(2.9 1.26488e-14 0)
(2.9 4.39896e-14 0)
(2.9 1.22193e-14 0)
(2.9 2.86909e-15 0)
(2.9 -6.52151e-14 0)
(2.9 -5.08684e-14 0)
(2.9 1.79636e-14 0)
(2.9 1.94854e-14 0)
(2.9 3.97062e-14 0)
(2.9 -2.74378e-14 0)
(2.9 -3.25385e-15 0)
(2.9 -3.50001e-16 0)
(2.9 -3.55024e-14 0)
(2.9 1.09993e-14 0)
(2.9 -4.21243e-14 0)
(2.9 -2.39895e-14 0)
(2.9 1.05532e-13 0)
(2.9 -9.66043e-15 0)
(2.9 2.7199e-15 0)
(2.9 7.11431e-15 0)
(2.9 2.05714e-14 0)
(2.9 1.04682e-14 0)
(2.9 3.26182e-14 0)
(2.9 -8.86674e-15 0)
(2.9 -6.17224e-14 0)
(2.9 -9.00524e-15 0)
(2.9 6.81135e-15 0)
(2.9 -1.07664e-14 0)
(2.9 -1.13703e-14 0)
(2.9 1.55277e-14 0)
(2.9 -2.18168e-14 0)
(2.9 -3.9625e-14 0)
(2.9 -5.75448e-14 0)
(2.9 1.38523e-14 0)
(2.9 2.46373e-14 0)
(2.9 5.47466e-15 0)
(2.9 -1.5494e-15 0)
(2.9 2.699e-14 0)
(2.9 1.04095e-15 0)
(2.9 3.70705e-14 0)
(2.9 4.77319e-15 0)
(2.9 -4.03264e-14 0)
(2.9 -4.28052e-16 0)
(2.9 1.70336e-15 0)
(2.9 -4.21328e-14 0)
(2.9 -3.14492e-14 0)
(2.9 5.73239e-15 0)
(2.9 -2.2956e-14 0)
(2.9 1.96347e-14 0)
(2.9 6.50797e-15 0)
(2.9 3.3432e-14 0)
(2.9 -2.39496e-14 0)
(2.9 3.28617e-14 0)
(2.9 2.11262e-14 0)
(2.9 1.75155e-14 0)
(2.9 -1.89458e-14 0)
(2.9 -1.61807e-14 0)
(2.9 -9.76553e-15 0)
(2.9 8.18711e-15 0)
(2.9 5.63645e-15 0)
(2.9 1.41112e-14 0)
(2.9 1.82639e-14 0)
(2.9 1.07682e-14 0)
(2.9 4.21297e-15 0)
(2.9 -5.41817e-14 0)
(2.9 5.77814e-15 0)
(2.9 -2.23527e-14 0)
(2.9 2.20277e-14 0)
(2.9 -9.25324e-16 0)
(2.9 -4.75005e-15 0)
(2.9 1.01893e-14 0)
(2.9 -6.65564e-15 0)
(2.9 1.28733e-14 0)
(2.9 -6.5123e-16 0)
(2.9 -4.77061e-14 0)
(2.9 3.00169e-14 0)
(2.9 4.41612e-14 0)
(2.9 3.49539e-15 0)
(2.9 -2.38395e-14 0)
(2.9 -2.83497e-14 0)
(2.9 -3.28549e-14 0)
(2.9 -4.64567e-14 0)
(2.9 -3.59126e-14 0)
(2.9 8.77506e-16 0)
(2.9 -1.52065e-14 0)
(2.9 -2.80764e-15 0)
(2.9 -8.81e-15 0)
(2.9 -4.97617e-15 0)
(2.9 -9.74296e-15 0)
(2.9 2.48605e-14 0)
(2.9 1.37625e-14 0)
(2.9 -1.8264e-14 0)
(2.9 -8.71486e-15 0)
(2.9 7.3342e-14 0)
(2.9 5.42521e-14 0)
(2.9 2.24706e-14 0)
(2.9 -3.265e-15 0)
(2.9 -3.32642e-15 0)
(2.9 1.31691e-14 0)
(2.9 -1.38737e-14 0)
(2.9 2.12422e-14 0)
(2.9 1.26476e-14 0)
(2.9 -3.92027e-15 0)
(2.9 -2.97232e-14 0)
(2.9 -5.85651e-14 0)
(2.9 -5.83158e-15 0)
(2.9 2.51035e-14 0)
(2.9 4.29948e-14 0)
(2.9 -8.62409e-15 0)
(2.9 -5.87876e-15 0)
(2.9 -5.11957e-14 0)
(2.9 -4.79175e-14 0)
(2.9 -9.60017e-16 0)
(2.9 2.8556e-14 0)
(2.9 8.01578e-15 0)
(2.9 -1.44817e-14 0)
(2.9 3.02266e-14 0)
(2.9 3.55989e-14 0)
(2.9 -6.99381e-15 0)
(2.9 -1.04324e-14 0)
(2.9 -1.23482e-16 0)
(2.9 8.51306e-15 0)
(2.9 2.14127e-14 0)
(2.9 6.38764e-15 0)
(2.9 -2.08896e-14 0)
(2.9 6.46702e-16 0)
(2.9 1.48057e-14 0)
(2.9 -1.07042e-14 0)
(2.9 1.39355e-14 0)
(2.9 -1.73616e-14 0)
(2.9 -3.10941e-14 0)
(2.9 -2.79264e-14 0)
(2.9 -1.51449e-14 0)
(2.9 -2.02334e-15 0)
(2.9 1.37648e-14 0)
(2.9 5.57483e-14 0)
(2.9 2.12641e-15 0)
(2.9 -1.96739e-15 0)
(2.9 -2.753e-14 0)
(2.9 -6.52624e-14 0)
(2.9 -1.88456e-14 0)
(2.9 -6.26264e-14 0)
(2.9 -5.88791e-14 0)
(2.9 -1.71374e-16 0)
(2.9 2.23433e-15 0)
(2.9 4.23539e-15 0)
(2.9 2.77583e-14 0)
(2.9 -1.71202e-14 0)
(2.9 -3.9098e-14 0)
(2.9 -3.14152e-15 0)
(2.9 -1.83413e-14 0)
(2.9 -2.92456e-14 0)
(2.9 2.28955e-14 0)
(2.9 -1.394e-14 0)
(2.9 1.01969e-14 0)
(2.9 3.64675e-14 0)
(2.9 1.68988e-14 0)
(2.9 -3.15138e-14 0)
(2.9 2.00456e-14 0)
(2.9 -8.08019e-15 0)
(2.9 -9.34286e-15 0)
(2.9 5.05961e-14 0)
(2.9 4.02607e-14 0)
(2.9 4.12967e-14 0)
(2.9 -1.74888e-14 0)
(2.9 5.37463e-14 0)
(2.9 1.042e-14 0)
(2.9 -3.06167e-14 0)
(2.9 -7.98234e-15 0)
(2.9 -8.05933e-15 0)
(2.9 -2.01698e-14 0)
(2.9 5.28914e-14 0)
(2.9 2.59796e-15 0)
(2.9 4.84642e-14 0)
(2.9 -1.37317e-14 0)
(2.9 -6.66286e-15 0)
(2.9 3.56812e-14 0)
(2.9 -5.9013e-15 0)
(2.9 -7.99679e-14 0)
(2.9 -1.77166e-15 0)
(2.9 -3.17213e-14 0)
(2.9 7.78793e-15 0)
(2.9 2.88198e-14 0)
(2.9 7.13663e-15 0)
(2.9 1.32401e-14 0)
(2.9 2.29238e-14 0)
(2.9 7.18845e-14 0)
(2.9 -7.68513e-17 0)
(2.9 -1.55441e-14 0)
(2.9 -4.09649e-14 0)
(2.9 -7.10156e-14 0)
(2.9 -5.57848e-14 0)
(2.9 -3.89089e-15 0)
(2.9 -1.61962e-14 0)
(2.9 7.71758e-14 0)
(2.9 4.46607e-14 0)
(2.9 -5.64726e-14 0)
(2.9 1.29786e-14 0)
(2.9 -4.48131e-14 0)
(2.9 -5.66222e-14 0)
(2.9 6.77667e-14 0)
(2.9 -2.56272e-14 0)
(2.9 -4.85017e-14 0)
(2.9 -3.45898e-14 0)
(2.9 8.91311e-14 0)
(2.9 1.53314e-14 0)
(2.9 5.26224e-14 0)
(2.9 -7.61579e-14 0)
(2.9 -4.25284e-14 0)
(2.9 -5.92282e-15 0)
(2.9 -9.67417e-15 0)
(2.9 -1.25526e-14 0)
(2.9 3.27658e-14 0)
(2.9 -1.82096e-14 0)
(2.9 5.9593e-15 0)
(2.9 7.0529e-14 0)
(2.9 5.09043e-14 0)
(2.9 2.95568e-14 0)
(2.9 -2.35451e-16 0)
(2.9 8.33597e-16 0)
(2.9 1.5613e-14 0)
(2.9 -2.31845e-14 0)
(2.9 2.07809e-14 0)
(2.9 2.03782e-14 0)
(2.9 9.70363e-14 0)
(2.9 5.02753e-14 0)
(2.9 -8.09086e-14 0)
(2.9 -4.28346e-14 0)
(2.9 -2.04331e-14 0)
(2.9 -1.43502e-14 0)
(2.9 1.83115e-14 0)
(2.9 2.48647e-14 0)
(2.9 -2.11239e-14 0)
(2.9 5.91285e-14 0)
(2.9 -1.72842e-14 0)
(2.9 -1.78217e-14 0)
(2.9 1.18157e-14 0)
(2.9 -4.50531e-14 0)
(2.9 -2.43368e-14 0)
(2.9 -1.1912e-15 0)
(2.9 -2.23286e-15 0)
(2.9 2.21003e-14 0)
(2.9 6.93255e-15 0)
(2.9 -1.04383e-14 0)
(2.9 5.31872e-14 0)
(2.9 5.10994e-14 0)
(2.9 2.48575e-14 0)
(2.9 -1.05333e-14 0)
(2.9 1.69836e-14 0)
(2.9 -2.3082e-14 0)
(2.9 -5.67105e-14 0)
(2.9 -8.82059e-15 0)
(2.9 9.94433e-15 0)
(2.9 -5.20702e-14 0)
(2.9 3.68785e-14 0)
(2.9 2.96389e-14 0)
(2.9 -4.6397e-14 0)
(2.9 2.31099e-15 0)
(2.9 -1.55843e-14 0)
(2.9 -2.60468e-14 0)
(2.9 -1.70047e-14 0)
(2.9 1.81849e-14 0)
(2.9 -1.88946e-14 0)
(2.9 3.70126e-14 0)
(2.9 6.32752e-14 0)
(2.9 -1.18466e-14 0)
(2.9 3.53958e-14 0)
(2.9 -4.14628e-14 0)
(2.9 -2.1483e-14 0)
(2.9 -1.12663e-14 0)
(2.9 4.87234e-14 0)
(2.9 1.1868e-14 0)
(2.9 5.08471e-14 0)
(2.9 2.00815e-14 0)
(2.9 -1.49125e-14 0)
(2.9 2.93462e-14 0)
(2.9 2.33873e-14 0)
(2.9 1.28086e-14 0)
(2.9 4.25518e-14 0)
(2.9 2.53534e-14 0)
(2.9 2.21199e-14 0)
(2.9 2.36558e-14 0)
(2.9 -6.11835e-15 0)
(2.9 6.52193e-15 0)
(2.9 6.53594e-14 0)
(2.9 -1.81944e-15 0)
(2.9 -1.73825e-14 0)
(2.9 3.25434e-14 0)
(2.9 -2.68994e-14 0)
(2.9 -5.09652e-14 0)
(2.9 5.23966e-14 0)
(2.9 -1.88759e-14 0)
(2.9 -2.23234e-14 0)
(2.9 1.24752e-14 0)
(2.9 1.94204e-14 0)
(2.9 -6.6792e-14 0)
(2.9 9.82649e-15 0)
(2.9 -7.96868e-14 0)
(2.9 9.17963e-15 0)
(2.9 -9.12864e-15 0)
(2.9 2.56217e-14 0)
(2.9 5.20412e-15 0)
(2.9 -1.90426e-14 0)
(2.9 1.25183e-16 0)
(2.9 5.60662e-14 0)
(2.9 3.3864e-14 0)
(2.9 4.14942e-15 0)
(2.9 -6.29296e-14 0)
(2.9 -4.34532e-14 0)
(2.9 -5.19738e-14 0)
(2.9 -2.99832e-14 0)
(2.9 -1.83481e-14 0)
(2.9 4.84643e-15 0)
(2.9 -2.41031e-14 0)
(2.9 -4.83618e-15 0)
(2.9 -9.12714e-16 0)
(2.9 -6.1097e-14 0)
(2.9 -4.98111e-14 0)
(2.9 -2.10093e-14 0)
(2.9 -4.47747e-14 0)
(2.9 -3.85937e-14 0)
(2.9 2.52225e-14 0)
(2.9 -4.80239e-14 0)
(2.9 2.08882e-15 0)
(2.9 2.98167e-14 0)
(2.9 -3.79471e-14 0)
(2.9 -1.34731e-14 0)
(2.9 5.97521e-15 0)
(2.9 -5.53953e-14 0)
(2.9 -2.54634e-14 0)
(2.9 -5.27535e-15 0)
(2.9 -1.13544e-14 0)
(2.9 4.1123e-14 0)
(2.9 3.25924e-14 0)
(2.9 4.6803e-14 0)
(2.9 1.24301e-14 0)
(2.9 -5.29553e-14 0)
(2.9 -1.97795e-14 0)
(2.9 2.78815e-14 0)
(2.9 4.05297e-14 0)
(2.9 2.06976e-14 0)
(2.9 4.64753e-14 0)
(2.9 -3.29493e-14 0)
(2.9 -2.63236e-14 0)
(2.9 3.47104e-14 0)
(2.9 1.14168e-14 0)
(2.9 6.59547e-14 0)
(2.9 -5.10689e-15 0)
(2.9 -2.22875e-15 0)
(2.9 -5.50435e-15 0)
(2.9 9.43698e-14 0)
(2.9 2.58042e-14 0)
(2.9 -2.60928e-15 0)
(2.9 -7.28734e-15 0)
(2.9 2.50622e-14 0)
(2.9 -3.04603e-14 0)
(2.9 1.90906e-14 0)
(2.9 5.00537e-15 0)
(2.9 3.9747e-15 0)
(2.9 2.67868e-14 0)
(2.9 2.48996e-14 0)
(2.9 -1.71072e-14 0)
(2.9 -7.54751e-14 0)
(2.9 3.36404e-15 0)
(2.9 1.81035e-14 0)
(2.9 7.60536e-15 0)
(2.9 1.95306e-14 0)
(2.9 -9.77834e-15 0)
(2.9 -5.86778e-14 0)
(2.9 4.83243e-14 0)
(2.9 1.54426e-14 0)
(2.9 -7.31755e-15 0)
(2.9 -1.65229e-14 0)
(2.9 4.82348e-14 0)
(2.9 1.82158e-14 0)
(2.9 -2.28452e-14 0)
(2.9 -4.24598e-14 0)
(2.9 -7.41494e-14 0)
(2.9 6.12035e-14 0)
(2.9 1.26485e-15 0)
(2.9 -4.08744e-14 0)
(2.9 -1.84156e-14 0)
(2.9 -1.05886e-14 0)
(2.9 -1.51972e-14 0)
(2.9 1.0788e-14 0)
(2.9 -3.53322e-16 0)
(2.9 -3.42654e-14 0)
(2.9 2.57317e-14 0)
(2.9 -6.09437e-14 0)
(2.9 -3.99098e-14 0)
(2.9 -5.27078e-14 0)
(2.9 -6.5468e-14 0)
(2.9 3.59374e-15 0)
(2.9 2.93486e-14 0)
(2.9 1.75399e-14 0)
(2.9 -1.53498e-14 0)
(2.9 -1.47117e-14 0)
(2.9 -3.96698e-14 0)
(2.9 -4.42018e-14 0)
(2.9 7.92475e-15 0)
(2.9 -2.10724e-15 0)
(2.9 -4.49865e-14 0)
(2.9 3.14829e-14 0)
(2.9 4.29662e-14 0)
(2.9 -4.2312e-14 0)
(2.9 1.47055e-14 0)
(2.9 2.2353e-14 0)
(2.9 1.24688e-14 0)
(2.9 5.13081e-14 0)
(2.9 2.16096e-14 0)
(2.9 4.05764e-14 0)
(2.9 8.88087e-15 0)
(2.9 2.00635e-14 0)
(2.9 -2.66113e-14 0)
(2.9 9.5317e-15 0)
(2.9 -1.0133e-15 0)
(2.9 7.036e-15 0)
(2.9 5.25931e-14 0)
(2.9 -9.82099e-15 0)
(2.9 7.61319e-15 0)
(2.9 -1.13514e-15 0)
(2.9 -5.75643e-14 0)
(2.9 -3.99294e-14 0)
(2.9 -1.23486e-14 0)
(2.9 1.98091e-14 0)
(2.9 -1.35439e-14 0)
(2.9 1.54466e-14 0)
(2.9 1.38718e-14 0)
(2.9 -2.27966e-14 0)
(2.9 4.46822e-14 0)
(2.9 6.9697e-14 0)
(2.9 5.88482e-14 0)
(2.9 8.39042e-15 0)
(2.9 1.55307e-14 0)
(2.9 1.09309e-14 0)
(2.9 -6.97677e-15 0)
(2.9 5.10722e-15 0)
(2.9 -6.05175e-15 0)
(2.9 5.18195e-14 0)
(2.9 5.45589e-14 0)
(2.9 -2.37157e-14 0)