/*--------------------------------*- C++ -*----------------------------------*\
| =========                 |                                                 |
| \\      /  F ield         | OpenFOAM: The Open Source CFD Toolbox           |
|  \\    /   O peration     | Version:  2412                                  |
|   \\  /    A nd           | Website:  www.openfoam.com                      |
|    \\/     M anipulation  |                                                 |
\*---------------------------------------------------------------------------*/
FoamFile
{
    version     2.0;
    format      ascii;
    arch        "LSB;label=32;scalar=64";
    class       volScalarField;
    location    "0.00993644";
    object      rhoY_Y_O2;
}
// * * * * * * * * * * * * * * * * * * * * * * * * * * * * * * * * * * * * * //

dimensions      [1 -3 0 0 0 0 0];

internalField   nonuniform List<scalar> 
100
(
0
0
0
0
0
0
0
0
0
0
0
0
0
0
0
0
0
0
0
0
0
0
0
0
0
0
0
0
0
0
0
0
0
0
0
0
0
0
0
0
0
0
0
0
0
0
0
0
0
-0.260087
-0.0564905
-0.0505481
-0.0423386
-0.0371498
-0.0338253
-0.0311765
-0.0289546
-0.0274083
-0.0261918
-0.0250441
-0.0242538
-0.0233338
-0.0227025
-0.0221232
-0.0215169
-0.0208477
-0.020244
-0.019835
-0.0195317
-0.0190487
-0.0186072
-0.0183383
-0.00999921
0.0380561
0.124303
0.21005
0.276512
0.317161
0.343021
0.361315
0.372578
0.379028
0.381198
0.379745
0.378316
0.378506
0.379749
0.383089
0.384088
0.384133
0.381149
0.377004
0.375907
0.375514
0.375863
0.389311
0.4054
0.376095
0.209613
0.160739
)
;

boundaryField
{
    sides
    {
        type            calculated;
        value           nonuniform List<scalar> 2(0.160357 0);
    }
    empty
    {
        type            empty;
    }
}


// ************************************************************************* //
