/*--------------------------------*- C++ -*----------------------------------*\
| =========                 |                                                 |
| \\      /  F ield         | OpenFOAM: The Open Source CFD Toolbox           |
|  \\    /   O peration     | Version:  2412                                  |
|   \\  /    A nd           | Website:  www.openfoam.com                      |
|    \\/     M anipulation  |                                                 |
\*---------------------------------------------------------------------------*/
FoamFile
{
    version     2.0;
    format      ascii;
    arch        "LSB;label=32;scalar=64";
    class       volVectorField;
    location    "0.00993644";
    object      U;
}
// * * * * * * * * * * * * * * * * * * * * * * * * * * * * * * * * * * * * * //

dimensions      [0 1 -1 0 0 0 0];

internalField   nonuniform List<vector> 
100
(
(-2.13937e-14 0 0)
(-3.29625e-14 0 0)
(3.84927e-14 0 0)
(4.71164e-14 0 0)
(7.95029e-16 0 0)
(4.30152e-14 0 0)
(4.72956e-14 0 0)
(1.58875e-13 0 0)
(1.36327e-13 0 0)
(9.89878e-14 0 0)
(1.5477e-13 0 0)
(2.68622e-12 0 0)
(1.29943e-09 0 0)
(5.01311e-07 0 0)
(0.000120947 0 0)
(0.0134448 0 0)
(0.48013 0 0)
(4.55767 0 0)
(15.4085 0 0)
(28.8397 0 0)
(40.6681 0 0)
(50.5641 0 0)
(59.4061 0 0)
(67.835 0 0)
(76.1425 0 0)
(84.4342 0 0)
(92.7286 0 0)
(101.063 0 0)
(109.369 0 0)
(117.818 0 0)
(126.016 0 0)
(134.715 0 0)
(142.508 0 0)
(151.598 0 0)
(159.022 0 0)
(167.903 0 0)
(176.006 0 0)
(183.61 0 0)
(192.555 0 0)
(200.027 0 0)
(208.753 0 0)
(216.393 0 0)
(225.254 0 0)
(233.237 0 0)
(241.948 0 0)
(250.091 0 0)
(257.063 0 0)
(265.136 0 0)
(274.186 0 0)
(281.429 0 0)
(282.832 0 0)
(281.353 0 0)
(281.066 0 0)
(287.067 0 0)
(288.501 0 0)
(280.391 0 0)
(276.33 0 0)
(279.859 0 0)
(289.319 0 0)
(289.853 0 0)
(280.593 0 0)
(277.006 0 0)
(279.576 0 0)
(288.254 0 0)
(287.525 0 0)
(282.853 0 0)
(277.212 0 0)
(277.721 0 0)
(283.305 0 0)
(288.309 0 0)
(285.972 0 0)
(285.568 0 0)
(279.52 0 0)
(278.51 0 0)
(279.661 0 0)
(281.915 0 0)
(283.205 0 0)
(279.415 0 0)
(277.498 0 0)
(279.343 0 0)
(281.69 0 0)
(283.427 0 0)
(283.426 0 0)
(281.306 0 0)
(279.656 0 0)
(279.572 0 0)
(280.382 0 0)
(283.039 0 0)
(283.796 0 0)
(283.344 0 0)
(280.693 0 0)
(277.32 0 0)
(276.335 0 0)
(276.259 0 0)
(277.304 0 0)
(288.449 0 0)
(297.468 0 0)
(265.375 0 0)
(87.2837 0 0)
(1.1359 0 0)
)
;

boundaryField
{
    sides
    {
        type            fixedValue;
        value           uniform (0 0 0);
    }
    empty
    {
        type            empty;
    }
}


// ************************************************************************* //
