/*--------------------------------*- C++ -*----------------------------------*\
| =========                 |                                                 |
| \\      /  F ield         | OpenFOAM: The Open Source CFD Toolbox           |
|  \\    /   O peration     | Version:  2412                                  |
|   \\  /    A nd           | Website:  www.openfoam.com                      |
|    \\/     M anipulation  |                                                 |
\*---------------------------------------------------------------------------*/
FoamFile
{
    version     2.0;
    format      ascii;
    arch        "LSB;label=32;scalar=64";
    class       volVectorField;
    location    "9.80459e-05";
    object      U;
}
// * * * * * * * * * * * * * * * * * * * * * * * * * * * * * * * * * * * * * //

dimensions      [0 1 -1 0 0 0 0];

internalField   nonuniform List<vector> 
1800
(
(2.9 6.13468e-15 0)
(2.9 6.23032e-14 0)
(2.9 -2.63885e-14 0)
(2.9 1.66244e-14 0)
(2.9 2.32594e-14 0)
(2.9 3.71597e-14 0)
(2.9 -5.58572e-15 0)
(2.9 -9.25287e-16 0)
(2.9 -2.68851e-14 0)
(2.9 1.37343e-14 0)
(2.9 3.83482e-14 0)
(2.9 3.32298e-14 0)
(2.9 3.12208e-15 0)
(2.9 -1.10464e-14 0)
(2.9 -2.67866e-14 0)
(2.9 -9.66576e-16 0)
(2.9 8.95884e-15 0)
(2.9 -3.35936e-14 0)
(2.9 -3.04698e-14 0)
(2.9 -3.7343e-14 0)
(2.9 -3.46188e-14 0)
(2.9 -2.93516e-14 0)
(2.9 -7.00959e-15 0)
(2.9 -1.23094e-14 0)
(2.9 1.00452e-14 0)
(2.9 -1.81016e-14 0)
(2.9 -2.61016e-14 0)
(2.9 -2.22531e-16 0)
(2.9 4.37719e-15 0)
(2.9 2.80707e-14 0)
(2.9 -1.60526e-14 0)
(2.9 5.19872e-15 0)
(2.9 -1.15333e-14 0)
(2.9 -2.36787e-14 0)
(2.9 -3.32414e-14 0)
(2.9 -5.73344e-14 0)
(2.9 -1.64862e-14 0)
(2.9 -1.42773e-14 0)
(2.9 -4.06644e-14 0)
(2.9 -1.58869e-14 0)
(2.9 -1.7424e-14 0)
(2.9 2.98766e-14 0)
(2.9 3.41367e-14 0)
(2.9 -3.70285e-14 0)
(2.9 -1.31915e-15 0)
(2.9 -2.6259e-14 0)
(2.9 -4.41088e-14 0)
(2.9 -3.19039e-14 0)
(2.9 -2.47487e-14 0)
(2.9 -2.87796e-14 0)
(2.9 -3.25352e-14 0)
(2.9 -1.32237e-14 0)
(2.9 -6.63884e-15 0)
(2.9 -4.65369e-14 0)
(2.9 5.93537e-15 0)
(2.9 -3.45704e-14 0)
(2.9 -8.83833e-15 0)
(2.9 -3.75884e-14 0)
(2.9 -2.56004e-15 0)
(2.9 -1.17461e-14 0)
(2.9 1.78606e-14 0)
(2.9 1.83577e-14 0)
(2.9 -9.20204e-14 0)
(2.9 -7.26218e-17 0)
(2.9 2.01071e-14 0)
(2.9 1.11318e-14 0)
(2.9 -9.33282e-15 0)
(2.9 2.26257e-15 0)
(2.9 -3.60489e-14 0)
(2.9 -2.98679e-15 0)
(2.9 2.19358e-15 0)
(2.9 7.43863e-15 0)
(2.9 3.06166e-15 0)
(2.9 -4.46088e-14 0)
(2.9 1.00391e-14 0)
(2.9 6.06813e-14 0)
(2.9 4.70683e-14 0)
(2.9 -8.71934e-14 0)
(2.9 -7.87764e-14 0)
(2.9 -9.75044e-14 0)
(2.9 -8.53592e-14 0)
(2.9 -8.2066e-14 0)
(2.9 -1.7127e-14 0)
(2.9 -1.67996e-16 0)
(2.9 -1.15049e-14 0)
(2.9 -6.70016e-14 0)
(2.9 -4.66152e-14 0)
(2.9 3.11541e-15 0)
(2.9 5.56449e-15 0)
(2.9 -5.91506e-14 0)
(2.9 -6.46257e-14 0)
(2.9 -4.70517e-14 0)
(2.9 -5.0623e-14 0)
(2.9 -9.11527e-14 0)
(2.9 -1.15312e-13 0)
(2.9 -1.62248e-13 0)
(2.9 -4.73244e-14 0)
(2.9 -4.57754e-14 0)
(2.9 -4.89723e-14 0)
(2.9 -2.02686e-14 0)
(2.9 -5.65015e-14 0)
(2.9 4.44686e-14 0)
(2.9 -5.92695e-15 0)
(2.9 4.08451e-15 0)
(2.9 -6.18831e-14 0)
(2.9 -8.25086e-14 0)
(2.9 -1.56111e-13 0)
(2.9 -1.07417e-13 0)
(2.9 -5.91496e-14 0)
(2.9 -9.33863e-14 0)
(2.9 -5.80281e-14 0)
(2.9 -3.80371e-14 0)
(2.9 -6.49356e-15 0)
(2.9 -1.0414e-13 0)
(2.9 -2.79499e-14 0)
(2.9 -6.51143e-14 0)
(2.9 -1.86155e-14 0)
(2.9 -7.66768e-14 0)
(2.9 -5.09519e-15 0)
(2.9 -4.34175e-14 0)
(2.9 -1.13665e-14 0)
(2.9 -5.61614e-14 0)
(2.9 -7.86079e-14 0)
(2.9 -8.02182e-14 0)
(2.9 4.01451e-15 0)
(2.9 4.257e-15 0)
(2.9 -1.45817e-14 0)
(2.9 2.80293e-14 0)
(2.9 4.28316e-14 0)
(2.9 5.65659e-15 0)
(2.9 8.68256e-14 0)
(2.9 3.93812e-15 0)
(2.9 6.80078e-14 0)
(2.9 5.25591e-14 0)
(2.9 3.24741e-14 0)
(2.9 7.90356e-14 0)
(2.9 5.85173e-14 0)
(2.9 -9.13207e-16 0)
(2.9 -1.58241e-14 0)
(2.9 -4.1907e-14 0)
(2.9 -8.40051e-14 0)
(2.9 -9.09633e-14 0)
(2.9 -2.70603e-14 0)
(2.9 -2.24097e-14 0)
(2.9 -2.00222e-14 0)
(2.9 -2.74378e-14 0)
(2.9 4.10494e-14 0)
(2.9 2.08695e-14 0)
(2.9 1.44592e-14 0)
(2.9 -1.2768e-14 0)
(2.9 -1.11079e-13 0)
(2.9 -1.26382e-13 0)
(2.9 -6.05831e-14 0)
(2.9 -7.68651e-14 0)
(2.9 -9.99657e-14 0)
(2.9 -6.73052e-14 0)
(2.9 -4.00787e-14 0)
(2.9 -6.42023e-14 0)
(2.9 -7.62925e-14 0)
(2.9 -6.38998e-14 0)
(2.9 -1.23789e-13 0)
(2.9 -3.90256e-14 0)
(2.9 -2.98694e-14 0)
(2.9 -1.5658e-14 0)
(2.9 -3.83988e-14 0)
(2.9 -1.18484e-13 0)
(2.9 -1.67016e-13 0)
(2.9 -7.66031e-14 0)
(2.9 -5.85597e-14 0)
(2.9 -2.18669e-14 0)
(2.9 -5.55662e-14 0)
(2.9 -5.07802e-14 0)
(2.9 -1.39459e-14 0)
(2.9 -5.51587e-14 0)
(2.9 -4.1775e-14 0)
(2.9 -1.98896e-14 0)
(2.9 -2.64609e-14 0)
(2.9 -2.80989e-14 0)
(2.9 -2.39255e-14 0)
(2.9 3.02952e-14 0)
(2.9 -5.45135e-14 0)
(2.9 -5.06964e-14 0)
(2.9 -7.15245e-14 0)
(2.9 -9.88994e-14 0)
(2.9 -8.68561e-15 0)
(2.9 -1.76251e-16 0)
(2.9 -2.71064e-14 0)
(2.9 -2.15072e-14 0)
(2.9 2.97422e-14 0)
(2.9 4.96464e-14 0)
(2.9 6.65531e-14 0)
(2.9 -4.54069e-17 0)
(2.9 2.07305e-14 0)
(2.9 3.85858e-14 0)
(2.9 2.13549e-14 0)
(2.9 5.60808e-14 0)
(2.9 3.85861e-14 0)
(2.9 6.23514e-14 0)
(2.9 -1.81351e-14 0)
(2.9 -3.76486e-14 0)
(2.9 -7.36633e-14 0)
(2.9 -5.67217e-14 0)
(2.9 -2.79979e-14 0)
(2.9 3.68398e-15 0)
(2.9 -1.04183e-14 0)
(2.9 -1.89016e-14 0)
(2.9 3.42733e-14 0)
(2.9 8.21456e-15 0)
(2.9 2.37753e-14 0)
(2.9 -1.50157e-15 0)
(2.9 -4.9247e-14 0)
(2.9 -6.77239e-14 0)
(2.9 -1.15199e-13 0)
(2.9 -9.20166e-14 0)
(2.9 -9.38925e-14 0)
(2.9 -5.399e-14 0)
(2.9 -3.98821e-14 0)
(2.9 -3.51569e-14 0)
(2.9 -5.76725e-14 0)
(2.9 -9.90667e-14 0)
(2.9 -1.45127e-13 0)
(2.9 -5.03665e-14 0)
(2.9 -2.12844e-14 0)
(2.9 1.1014e-14 0)
(2.9 -5.18485e-15 0)
(2.9 -6.51267e-14 0)
(2.9 -1.26692e-13 0)
(2.9 -7.98322e-14 0)
(2.9 -3.575e-14 0)
(2.9 -7.1764e-15 0)
(2.9 -3.4733e-14 0)
(2.9 -5.74471e-14 0)
(2.9 -5.98031e-14 0)
(2.9 -6.55565e-14 0)
(2.9 -5.77205e-14 0)
(2.9 -7.41644e-15 0)
(2.9 -1.10909e-14 0)
(2.9 1.05497e-14 0)
(2.9 1.01652e-13 0)
(2.9 7.63125e-14 0)
(2.9 -9.22011e-15 0)
(2.9 -6.40815e-14 0)
(2.9 -5.41776e-14 0)
(2.9 -5.29299e-14 0)
(2.9 1.11145e-14 0)
(2.9 -4.32374e-14 0)
(2.9 -4.56406e-14 0)
(2.9 -3.10958e-14 0)
(2.9 7.06445e-15 0)
(2.9 9.44741e-14 0)
(2.9 2.44209e-14 0)
(2.9 -5.28995e-14 0)
(2.9 -4.12352e-14 0)
(2.9 -3.44458e-14 0)
(2.9 -6.71263e-14 0)
(2.9 -2.46052e-14 0)
(2.9 9.32531e-15 0)
(2.9 -3.43533e-14 0)
(2.9 -1.22081e-15 0)
(2.9 -1.0249e-13 0)
(2.9 -2.54826e-14 0)
(2.9 -4.1985e-14 0)
(2.9 -1.88116e-14 0)
(2.9 -4.00077e-14 0)
(2.9 3.81183e-15 0)
(2.9 -2.58022e-15 0)
(2.9 3.15421e-14 0)
(2.9 -2.18319e-14 0)
(2.9 6.01997e-15 0)
(2.9 -5.26726e-16 0)
(2.9 -9.65568e-15 0)
(2.9 -3.70028e-14 0)
(2.9 -4.45667e-14 0)
(2.9 -4.38958e-14 0)
(2.9 -6.69144e-14 0)
(2.9 -6.30503e-14 0)
(2.9 -3.71726e-14 0)
(2.9 -9.50264e-15 0)
(2.9 8.60826e-15 0)
(2.9 -5.95061e-14 0)
(2.9 -2.4189e-14 0)
(2.9 3.67213e-14 0)
(2.9 -7.2633e-15 0)
(2.9 7.62681e-14 0)
(2.9 4.98238e-15 0)
(2.9 -7.67862e-15 0)
(2.9 -3.79563e-14 0)
(2.9 -4.24172e-14 0)
(2.9 -1.86388e-14 0)
(2.9 -1.60389e-14 0)
(2.9 2.07812e-14 0)
(2.9 -2.7073e-14 0)
(2.9 -9.55656e-14 0)
(2.9 -7.17398e-14 0)
(2.9 -1.0827e-13 0)
(2.9 -5.09111e-14 0)
(2.9 4.28271e-15 0)
(2.9 6.51708e-14 0)
(2.9 1.03751e-13 0)
(2.9 -2.18275e-14 0)
(2.9 2.79773e-14 0)
(2.9 -2.66481e-14 0)
(2.9 -3.10642e-14 0)
(2.9 -6.94349e-15 0)
(2.9 -7.81112e-15 0)
(2.9 -9.67955e-14 0)
(2.9 -4.87832e-14 0)
(2.9 -6.26872e-15 0)
(2.9 1.15402e-14 0)
(2.9 8.79295e-14 0)
(2.9 3.18429e-14 0)
(2.9 3.03925e-14 0)
(2.9 4.83983e-14 0)
(2.9 1.4211e-14 0)
(2.9 -6.803e-14 0)
(2.9 -9.17589e-15 0)
(2.9 -2.93019e-15 0)
(2.9 -2.55531e-14 0)
(2.9 -1.25236e-14 0)
(2.9 -1.88131e-14 0)
(2.9 -2.36735e-14 0)
(2.9 -3.37027e-14 0)
(2.9 -4.22871e-15 0)
(2.9 1.84792e-15 0)
(2.9 2.34596e-14 0)
(2.9 -2.86425e-14 0)
(2.9 1.21346e-14 0)
(2.9 -2.20038e-14 0)
(2.9 -3.16872e-14 0)
(2.9 7.99598e-14 0)
(2.9 -5.53296e-14 0)
(2.9 3.18549e-14 0)
(2.9 1.58712e-14 0)
(2.9 -1.2073e-14 0)
(2.9 -1.97105e-14 0)
(2.9 -9.64806e-14 0)
(2.9 -6.81591e-14 0)
(2.9 1.86592e-14 0)
(2.9 2.57829e-14 0)
(2.9 -1.76148e-14 0)
(2.9 7.14414e-14 0)
(2.9 1.97986e-14 0)
(2.9 3.11713e-14 0)
(2.9 1.95966e-14 0)
(2.9 1.31544e-14 0)
(2.9 -1.04474e-14 0)
(2.9 -2.73558e-14 0)
(2.9 1.57125e-14 0)
(2.9 3.41465e-14 0)
(2.9 4.41351e-14 0)
(2.9 6.21746e-14 0)
(2.9 2.86506e-14 0)
(2.9 -5.24665e-15 0)
(2.9 -1.75303e-14 0)
(2.9 -2.69401e-14 0)
(2.9 -3.27665e-14 0)
(2.9 1.69426e-15 0)
(2.9 7.75979e-14 0)
(2.9 2.76215e-14 0)
(2.9 -1.04326e-13 0)
(2.9 4.76605e-15 0)
(2.9 2.36226e-14 0)
(2.9 2.54231e-14 0)
(2.9 -2.19465e-14 0)
(2.9 -4.86817e-14 0)
(2.9 -9.44612e-14 0)
(2.9 -2.42151e-14 0)
(2.9 -2.59112e-14 0)
(2.9 1.80764e-14 0)
(2.9 2.46711e-14 0)
(2.9 5.06273e-15 0)
(2.9 2.57263e-14 0)
(2.9 3.28092e-14 0)
(2.9 -3.85055e-14 0)
(2.9 -1.14274e-14 0)
(2.9 -7.55332e-14 0)
(2.9 -1.10793e-14 0)
(2.9 -4.31999e-14 0)
(2.9 2.25868e-14 0)
(2.9 5.13931e-14 0)
(2.9 2.92935e-14 0)
(2.9 -2.38365e-14 0)
(2.9 -1.22433e-14 0)
(2.9 -4.42855e-14 0)
(2.9 1.01052e-14 0)
(2.9 6.46061e-14 0)
(2.9 3.86476e-14 0)
(2.9 2.11376e-14 0)
(2.9 -6.67163e-14 0)
(2.9 3.75433e-14 0)
(2.9 -1.66148e-14 0)
(2.9 5.06922e-14 0)
(2.9 3.22331e-14 0)
(2.9 7.20547e-15 0)
(2.9 -4.1398e-14 0)
(2.9 -7.25325e-14 0)
(2.9 3.93017e-15 0)
(2.9 3.35796e-14 0)
(2.9 7.62466e-15 0)
(2.9 -2.23328e-14 0)
(2.9 8.01095e-14 0)
(2.9 1.74801e-14 0)
(2.9 3.47332e-14 0)
(2.9 -2.07922e-14 0)
(2.9 2.05783e-14 0)
(2.9 3.52632e-15 0)
(2.9 -7.87523e-16 0)
(2.9 -2.68063e-16 0)
(2.9 -1.39557e-14 0)
(2.9 2.10229e-14 0)
(2.9 1.65346e-14 0)
(2.9 1.50406e-15 0)
(2.9 4.38548e-14 0)
(2.9 -3.37405e-14 0)
(2.9 -8.89629e-15 0)
(2.9 4.17128e-14 0)
(2.9 -1.01388e-14 0)
(2.9 -2.14037e-14 0)
(2.9 -2.42699e-14 0)
(2.9 -1.01317e-13 0)
(2.9 -2.64216e-15 0)
(2.9 5.09914e-14 0)
(2.9 5.91421e-14 0)
(2.9 -4.95181e-14 0)
(2.9 -6.23335e-14 0)
(2.9 -2.33533e-14 0)
(2.9 2.78696e-14 0)
(2.9 4.02838e-14 0)
(2.9 3.33173e-14 0)
(2.9 8.839e-16 0)
(2.9 1.14393e-14 0)
(2.9 1.19154e-14 0)
(2.9 3.86731e-14 0)
(2.9 2.48146e-14 0)
(2.9 5.67565e-14 0)
(2.9 -6.00598e-14 0)
(2.9 5.43298e-15 0)
(2.9 -8.33233e-15 0)
(2.9 4.84734e-14 0)
(2.9 1.06213e-13 0)
(2.9 9.35315e-14 0)
(2.9 6.30909e-14 0)
(2.9 1.12927e-14 0)
(2.9 3.44347e-14 0)
(2.9 -1.05542e-15 0)
(2.9 3.5692e-14 0)
(2.9 5.28528e-14 0)
(2.9 3.10826e-14 0)
(2.9 3.74828e-14 0)
(2.9 4.94045e-14 0)
(2.9 1.5241e-14 0)
(2.9 3.7051e-14 0)
(2.9 6.79255e-14 0)
(2.9 5.58615e-14 0)
(2.9 1.25215e-14 0)
(2.9 3.06967e-14 0)
(2.9 7.54933e-14 0)
(2.9 2.69408e-14 0)
(2.9 -2.22289e-14 0)
(2.9 -5.1306e-14 0)
(2.9 8.2598e-14 0)
(2.9 1.3205e-13 0)
(2.9 7.99525e-14 0)
(2.9 -1.15626e-14 0)
(2.9 2.31192e-14 0)
(2.9 -3.3767e-14 0)
(2.9 6.80865e-14 0)
(2.9 4.43815e-14 0)
(2.9 3.13267e-14 0)
(2.9 3.39346e-14 0)
(2.9 3.80953e-14 0)
(2.9 4.21336e-14 0)
(2.9 7.92608e-14 0)
(2.9 1.88858e-14 0)
(2.9 1.8032e-14 0)
(2.9 2.6782e-14 0)
(2.9 -3.09407e-14 0)
(2.9 -2.5037e-14 0)
(2.9 -7.51784e-14 0)
(2.9 -1.0772e-13 0)
(2.9 -1.25714e-14 0)
(2.9 7.33298e-14 0)
(2.9 1.9469e-15 0)
(2.9 -8.40544e-15 0)
(2.9 3.14308e-15 0)
(2.9 -1.62429e-14 0)
(2.9 -8.52033e-15 0)
(2.9 9.23832e-15 0)
(2.9 4.35959e-14 0)
(2.9 5.24825e-14 0)
(2.9 2.22228e-14 0)
(2.9 2.89562e-14 0)
(2.9 6.08421e-14 0)
(2.9 5.80879e-14 0)
(2.9 2.13451e-14 0)
(2.9 -3.42358e-15 0)
(2.9 -7.97828e-16 0)
(2.9 2.88186e-15 0)
(2.9 3.42356e-14 0)
(2.9 4.44212e-14 0)
(2.9 7.23907e-14 0)
(2.9 7.59311e-14 0)
(2.9 -9.29545e-15 0)
(2.9 6.2174e-14 0)
(2.9 4.53918e-14 0)
(2.9 3.25321e-14 0)
(2.9 3.53619e-14 0)
(2.9 2.0338e-14 0)
(2.9 7.37242e-14 0)
(2.9 4.11146e-14 0)
(2.9 3.01399e-14 0)
(2.9 -1.9369e-14 0)
(2.9 3.13152e-14 0)
(2.9 2.1955e-14 0)
(2.9 4.31697e-14 0)
(2.9 1.2709e-13 0)
(2.9 3.62577e-14 0)
(2.9 8.67944e-15 0)
(2.9 3.21672e-14 0)
(2.9 -3.46862e-14 0)
(2.9 6.40321e-14 0)
(2.9 9.83367e-14 0)
(2.9 4.78406e-14 0)
(2.9 -1.82256e-14 0)
(2.9 -1.65927e-14 0)
(2.9 4.40808e-15 0)
(2.9 2.77648e-14 0)
(2.9 6.10864e-14 0)
(2.9 8.36034e-14 0)
(2.9 -9.19895e-16 0)
(2.9 4.64875e-14 0)
(2.9 8.93307e-14 0)
(2.9 3.1644e-14 0)
(2.9 4.98539e-14 0)
(2.9 2.73376e-14 0)
(2.9 3.04705e-14 0)
(2.9 3.92916e-14 0)
(2.9 -4.91596e-14 0)
(2.9 -5.61697e-14 0)
(2.9 -7.51195e-14 0)
(2.9 -3.35874e-14 0)
(2.9 3.5585e-15 0)
(2.9 -2.52052e-14 0)
(2.9 4.37853e-14 0)
(2.9 4.93861e-14 0)
(2.9 7.64055e-14 0)
(2.9 -4.66396e-15 0)
(2.9 -3.73673e-14 0)
(2.9 1.13744e-14 0)
(2.9 1.04395e-14 0)
(2.9 2.75404e-14 0)
(2.9 5.0571e-15 0)
(2.9 -1.60067e-14 0)
(2.9 2.10447e-14 0)
(2.9 8.61989e-15 0)
(2.9 -1.3933e-14 0)
(2.9 3.81565e-15 0)
(2.9 4.08403e-14 0)
(2.9 4.25678e-14 0)
(2.9 2.1438e-14 0)
(2.9 6.84287e-14 0)
(2.9 6.15537e-14 0)
(2.9 -4.53113e-15 0)
(2.9 2.73174e-14 0)
(2.9 5.48311e-14 0)
(2.9 1.20023e-14 0)
(2.9 8.55901e-15 0)
(2.9 1.0318e-15 0)
(2.9 3.07517e-14 0)
(2.9 -1.66869e-14 0)
(2.9 4.15531e-14 0)
(2.9 -5.26102e-14 0)
(2.9 -5.45007e-14 0)
(2.9 -1.29236e-14 0)
(2.9 2.2935e-14 0)
(2.9 1.11981e-13 0)
(2.9 3.57246e-14 0)
(2.9 -1.96328e-14 0)
(2.9 4.99485e-14 0)
(2.9 3.07543e-14 0)
(2.9 2.32744e-14 0)
(2.9 6.90886e-14 0)
(2.9 2.8528e-14 0)
(2.9 -5.37806e-14 0)
(2.9 -4.91522e-14 0)
(2.9 2.63648e-14 0)
(2.9 4.61153e-14 0)
(2.9 7.4011e-15 0)
(2.9 2.16167e-14 0)
(2.9 -1.95285e-14 0)
(2.9 -8.53421e-15 0)
(2.9 3.06817e-14 0)
(2.9 -8.53535e-15 0)
(2.9 3.51944e-14 0)
(2.9 1.30101e-14 0)
(2.9 2.3835e-14 0)
(2.9 4.90401e-14 0)
(2.9 1.1149e-14 0)
(2.9 -3.46183e-14 0)
(2.9 3.59165e-14 0)
(2.9 -2.81061e-14 0)
(2.9 -2.69285e-14 0)
(2.9 4.3204e-14 0)
(2.9 8.16381e-14 0)
(2.9 5.09603e-14 0)
(2.9 1.24113e-13 0)
(2.9 9.26235e-14 0)
(2.9 3.48343e-15 0)
(2.9 -2.70888e-14 0)
(2.9 7.49292e-15 0)
(2.9 -3.61417e-14 0)
(2.9 -3.97066e-14 0)
(2.9 -1.27599e-13 0)
(2.9 -6.24752e-14 0)
(2.9 3.3197e-14 0)
(2.9 3.7442e-14 0)
(2.9 1.57902e-14 0)
(2.9 8.79163e-14 0)
(2.9 6.26899e-14 0)
(2.9 1.35361e-14 0)
(2.9 7.06263e-14 0)
(2.9 1.8757e-14 0)
(2.9 5.67011e-14 0)
(2.9 5.50715e-15 0)
(2.9 1.62082e-14 0)
(2.9 1.97642e-14 0)
(2.9 1.36694e-14 0)
(2.9 1.11315e-14 0)
(2.9 4.66808e-14 0)
(2.9 2.87889e-14 0)
(2.9 1.53827e-14 0)
(2.9 -4.81562e-15 0)
(2.9 -7.34919e-14 0)
(2.9 -3.92134e-14 0)
(2.9 5.99738e-14 0)
(2.9 7.94436e-14 0)
(2.9 3.47441e-14 0)
(2.9 -1.30413e-14 0)
(2.9 9.53226e-15 0)
(2.9 3.24309e-14 0)
(2.9 -1.8482e-14 0)
(2.9 -5.38412e-16 0)
(2.9 3.44265e-14 0)
(2.9 -3.21727e-14 0)
(2.9 -5.54774e-14 0)
(2.9 3.97941e-14 0)
(2.9 1.04561e-13 0)
(2.9 3.84552e-14 0)
(2.9 -1.62228e-15 0)
(2.9 6.86357e-15 0)
(2.9 -1.11549e-15 0)
(2.9 2.92933e-14 0)
(2.9 2.37195e-14 0)
(2.9 3.83393e-14 0)
(2.9 6.13318e-14 0)
(2.9 4.53791e-14 0)
(2.9 3.04862e-14 0)
(2.9 1.10492e-13 0)
(2.9 2.03782e-14 0)
(2.9 1.08731e-13 0)
(2.9 3.0948e-14 0)
(2.9 -2.17021e-14 0)
(2.9 8.90481e-14 0)
(2.9 5.56597e-14 0)
(2.9 2.06155e-14 0)
(2.9 1.68056e-14 0)
(2.9 3.33915e-14 0)
(2.9 -3.0867e-14 0)
(2.9 2.49913e-14 0)
(2.9 -4.43981e-14 0)
(2.9 7.9871e-15 0)
(2.9 -4.34799e-14 0)
(2.9 -8.15585e-14 0)
(2.9 -2.32636e-14 0)
(2.9 -1.50488e-14 0)
(2.9 4.24292e-14 0)
(2.9 5.14528e-14 0)
(2.9 8.64697e-14 0)
(2.9 5.02377e-14 0)
(2.9 4.01358e-14 0)
(2.9 -7.21781e-15 0)
(2.9 9.44492e-14 0)
(2.9 4.24165e-15 0)
(2.9 -1.5075e-14 0)
(2.9 -3.05411e-14 0)
(2.9 3.58116e-14 0)
(2.9 -4.34524e-14 0)
(2.9 -3.69389e-14 0)
(2.9 6.3261e-14 0)
(2.9 1.46549e-15 0)
(2.9 -1.00182e-14 0)
(2.9 7.95459e-16 0)
(2.9 4.33233e-15 0)
(2.9 3.83027e-14 0)
(2.9 5.03386e-14 0)
(2.9 1.48474e-14 0)
(2.9 -1.96953e-15 0)
(2.9 2.83142e-14 0)
(2.9 -1.96425e-14 0)
(2.9 3.35251e-15 0)
(2.9 -3.35424e-14 0)
(2.9 -4.51905e-14 0)
(2.9 -3.04058e-15 0)
(2.9 1.21302e-14 0)
(2.9 2.08568e-14 0)
(2.9 3.59548e-14 0)
(2.9 5.74106e-14 0)
(2.9 4.49954e-14 0)
(2.9 2.91781e-14 0)
(2.9 5.57818e-14 0)
(2.9 6.80344e-15 0)
(2.9 1.60581e-14 0)
(2.9 4.16932e-14 0)
(2.9 2.3552e-14 0)
(2.9 3.75206e-14 0)
(2.9 3.28246e-14 0)
(2.9 4.1516e-14 0)
(2.9 6.97412e-14 0)
(2.9 -7.7145e-15 0)
(2.9 4.46922e-14 0)
(2.9 -1.2652e-15 0)
(2.9 -2.06086e-14 0)
(2.9 2.98185e-14 0)
(2.9 -1.82202e-14 0)
(2.9 -3.23665e-14 0)
(2.9 9.22083e-15 0)
(2.9 5.17414e-15 0)
(2.9 -2.75466e-14 0)
(2.9 -3.11332e-14 0)
(2.9 -5.26527e-14 0)
(2.9 1.59726e-14 0)
(2.9 2.55554e-14 0)
(2.9 2.82205e-14 0)
(2.9 6.70955e-14 0)
(2.9 -7.61603e-14 0)
(2.9 -1.78403e-14 0)
(2.9 2.91381e-14 0)
(2.9 3.44156e-14 0)
(2.9 -2.29792e-14 0)
(2.9 -6.01414e-15 0)
(2.9 -9.53393e-15 0)
(2.9 4.24032e-14 0)
(2.9 2.08693e-14 0)
(2.9 -1.19935e-14 0)
(2.9 -6.81748e-14 0)
(2.9 1.53717e-14 0)
(2.9 -5.13414e-14 0)
(2.9 -6.64874e-15 0)
(2.9 4.79541e-15 0)
(2.9 -2.43964e-14 0)
(2.9 2.20528e-14 0)
(2.9 -9.42126e-15 0)
(2.9 3.97692e-14 0)
(2.9 2.70542e-14 0)
(2.9 -1.65937e-14 0)
(2.9 -2.25744e-15 0)
(2.9 1.26201e-14 0)
(2.9 2.91636e-14 0)
(2.9 -3.18894e-14 0)
(2.9 -3.4187e-14 0)
(2.9 -4.52452e-14 0)
(2.9 -3.63806e-14 0)
(2.9 -3.65658e-14 0)
(2.9 5.11893e-14 0)
(2.9 7.22997e-14 0)
(2.9 3.67041e-14 0)
(2.9 3.44811e-14 0)
(2.9 1.11494e-15 0)
(2.9 -7.63501e-15 0)
(2.9 -1.041e-14 0)
(2.9 -2.41889e-15 0)
(2.9 -1.72134e-15 0)
(2.9 3.99947e-15 0)
(2.9 6.9966e-17 0)
(2.9 -2.26857e-14 0)
(2.9 -3.47928e-15 0)
(2.9 6.0714e-15 0)
(2.9 -4.83998e-15 0)
(2.9 -2.34204e-14 0)
(2.9 -1.76009e-14 0)
(2.9 -4.14653e-14 0)
(2.9 -5.39933e-14 0)
(2.9 -1.0538e-14 0)
(2.9 6.48542e-14 0)
(2.9 -4.53145e-15 0)
(2.9 2.08607e-15 0)
(2.9 -1.37335e-14 0)
(2.9 -5.73475e-14 0)
(2.9 4.41587e-15 0)
(2.9 -1.34055e-14 0)
(2.9 2.34588e-14 0)
(2.9 4.25301e-14 0)
(2.9 4.02982e-14 0)
(2.9 -3.2917e-16 0)
(2.9 -9.70775e-14 0)
(2.9 -8.28616e-14 0)
(2.9 -2.28707e-14 0)
(2.9 1.07912e-14 0)
(2.9 -5.4746e-14 0)
(2.9 -4.61154e-14 0)
(2.9 -3.78925e-14 0)
(2.9 9.4507e-15 0)
(2.9 4.07827e-14 0)
(2.9 2.03157e-14 0)
(2.9 -1.68097e-14 0)
(2.9 5.82576e-15 0)
(2.9 8.72387e-15 0)
(2.9 3.52803e-14 0)
(2.9 4.49102e-14 0)
(2.9 6.58298e-14 0)
(2.9 6.25675e-16 0)
(2.9 1.74413e-14 0)
(2.9 4.82476e-15 0)
(2.9 -1.38389e-14 0)
(2.9 -4.24618e-14 0)
(2.9 -1.27429e-14 0)
(2.9 3.83089e-15 0)
(2.9 -4.98217e-14 0)
(2.9 -2.49311e-14 0)
(2.9 -7.11694e-14 0)
(2.9 -6.47347e-14 0)
(2.9 -5.17474e-14 0)
(2.9 -5.68842e-15 0)
(2.9 8.401e-14 0)
(2.9 1.05309e-13 0)
(2.9 9.48015e-14 0)
(2.9 1.39187e-14 0)
(2.9 -1.49035e-14 0)
(2.9 -4.90577e-14 0)
(2.9 1.22419e-15 0)
(2.9 -6.12266e-14 0)
(2.9 -1.53429e-14 0)
(2.9 1.43665e-14 0)
(2.9 5.57192e-14 0)
(2.9 3.27909e-14 0)
(2.9 -6.115e-15 0)
(2.9 -2.92602e-14 0)
(2.9 -5.15009e-14 0)
(2.9 -7.46098e-15 0)
(2.9 -1.36321e-14 0)
(2.9 -2.40637e-14 0)
(2.9 -1.17038e-14 0)
(2.9 -2.39931e-14 0)
(2.9 1.35063e-14 0)
(2.9 5.14445e-14 0)
(2.9 -1.87014e-14 0)
(2.9 2.29963e-14 0)
(2.9 9.59948e-15 0)
(2.9 4.51957e-14 0)
(2.9 1.86721e-14 0)
(2.9 1.93397e-14 0)
(2.9 4.89061e-14 0)
(2.9 2.46214e-14 0)
(2.9 -6.68907e-14 0)
(2.9 -4.46639e-14 0)
(2.9 -1.19403e-14 0)
(2.9 -7.72944e-14 0)
(2.9 1.72718e-14 0)
(2.9 -4.78075e-14 0)
(2.9 3.96077e-14 0)
(2.9 -3.60036e-14 0)
(2.9 -4.64438e-15 0)
(2.9 1.26882e-14 0)
(2.9 2.31861e-14 0)
(2.9 6.09373e-14 0)
(2.9 7.17479e-15 0)
(2.9 -3.06915e-14 0)
(2.9 -2.29798e-15 0)
(2.9 -1.09169e-15 0)
(2.9 -3.71249e-15 0)
(2.9 -6.04807e-15 0)
(2.9 -2.25749e-14 0)
(2.9 5.91477e-15 0)
(2.9 2.72481e-14 0)
(2.9 2.01613e-14 0)
(2.9 -6.45673e-15 0)
(2.9 -2.07779e-15 0)
(2.9 -4.57078e-14 0)
(2.9 -1.84786e-14 0)
(2.9 -2.87683e-14 0)
(2.9 -4.57978e-14 0)
(2.9 -3.955e-14 0)
(2.9 9.37568e-16 0)
(2.9 7.85979e-14 0)
(2.9 9.4219e-14 0)
(2.9 8.59178e-14 0)
(2.9 2.27284e-14 0)
(2.9 -1.93391e-14 0)
(2.9 -5.64777e-14 0)
(2.9 -2.03018e-14 0)
(2.9 -2.12122e-14 0)
(2.9 -3.80287e-14 0)
(2.9 5.09022e-15 0)
(2.9 1.66482e-14 0)
(2.9 4.3855e-14 0)
(2.9 3.97075e-14 0)
(2.9 -2.86539e-14 0)
(2.9 -2.32198e-14 0)
(2.9 -2.16988e-14 0)
(2.9 1.45986e-14 0)
(2.9 -2.46073e-14 0)
(2.9 5.93002e-14 0)
(2.9 -4.97553e-14 0)
(2.9 -2.45736e-14 0)
(2.9 8.50351e-14 0)
(2.9 3.50722e-14 0)
(2.9 2.49438e-14 0)
(2.9 8.29845e-14 0)
(2.9 1.285e-15 0)
(2.9 2.43055e-14 0)
(2.9 -3.0059e-15 0)
(2.9 7.47751e-14 0)
(2.9 3.94092e-14 0)
(2.9 2.61755e-15 0)
(2.9 -2.34456e-14 0)
(2.9 1.57089e-14 0)
(2.9 -5.82655e-14 0)
(2.9 -1.31605e-14 0)
(2.9 -4.54533e-14 0)
(2.9 3.6513e-14 0)
(2.9 -6.3477e-14 0)
(2.9 -4.26824e-14 0)
(2.9 -5.23458e-14 0)
(2.9 -1.24332e-14 0)
(2.9 3.24778e-14 0)
(2.9 -1.84938e-14 0)
(2.9 -4.88977e-14 0)
(2.9 -8.3653e-15 0)
(2.9 -5.02892e-14 0)
(2.9 -5.50869e-14 0)
(2.9 -6.76424e-14 0)
(2.9 -6.8782e-14 0)
(2.9 -4.68136e-14 0)
(2.9 -1.42127e-16 0)
(2.9 -2.25699e-14 0)
(2.9 -4.31716e-14 0)
(2.9 -4.11986e-14 0)
(2.9 -1.27393e-14 0)
(2.9 -5.32257e-14 0)
(2.9 1.48783e-14 0)
(2.9 4.47718e-14 0)
(2.9 -4.58573e-14 0)
(2.9 -1.39152e-14 0)
(2.9 6.71133e-14 0)
(2.9 6.23645e-14 0)
(2.9 4.86726e-14 0)
(2.9 2.4325e-14 0)
(2.9 -1.25404e-14 0)
(2.9 -7.93624e-14 0)
(2.9 -3.50808e-14 0)
(2.9 -3.15298e-14 0)
(2.9 -8.16935e-14 0)
(2.9 -4.34365e-14 0)
(2.9 -2.97193e-14 0)
(2.9 1.66866e-14 0)
(2.9 4.53656e-14 0)
(2.9 -4.3613e-14 0)
(2.9 1.4564e-14 0)
(2.9 1.78862e-14 0)
(2.9 -1.00135e-15 0)
(2.9 3.7494e-15 0)
(2.9 1.17984e-13 0)
(2.9 4.22862e-14 0)
(2.9 3.32995e-14 0)
(2.9 2.40391e-14 0)
(2.9 2.28267e-14 0)
(2.9 3.17774e-15 0)
(2.9 4.21987e-14 0)
(2.9 -8.81032e-14 0)
(2.9 -2.86127e-14 0)
(2.9 -2.29842e-14 0)
(2.9 1.73439e-14 0)
(2.9 3.99828e-14 0)
(2.9 5.59515e-14 0)
(2.9 -9.83497e-15 0)
(2.9 -4.44943e-15 0)
(2.9 2.53247e-14 0)
(2.9 -2.35921e-14 0)
(2.9 -1.5788e-14 0)
(2.9 -3.92571e-14 0)
(2.9 -9.94824e-14 0)
(2.9 -9.9157e-14 0)
(2.9 -4.06148e-14 0)
(2.9 -2.10907e-14 0)
(2.9 1.03917e-14 0)
(2.9 2.21146e-14 0)
(2.9 1.82723e-14 0)
(2.9 1.31278e-15 0)
(2.9 -1.05454e-13 0)
(2.9 -5.95003e-14 0)
(2.9 -6.58545e-14 0)
(2.9 5.51776e-15 0)
(2.9 1.56797e-14 0)
(2.9 -2.01262e-14 0)
(2.9 -4.04062e-14 0)
(2.9 -4.39687e-14 0)
(2.9 -6.09578e-14 0)
(2.9 -5.02283e-16 0)
(2.9 -7.27412e-14 0)
(2.9 -1.50037e-14 0)
(2.9 1.09975e-13 0)
(2.9 -1.25836e-14 0)
(2.9 -1.43986e-14 0)
(2.9 3.36797e-14 0)
(2.9 2.6382e-14 0)
(2.9 1.465e-14 0)
(2.9 1.79311e-14 0)
(2.9 -3.83785e-14 0)
(2.9 -8.2511e-14 0)
(2.9 -3.09541e-14 0)
(2.9 2.59698e-15 0)
(2.9 -6.97832e-14 0)
(2.9 2.54987e-14 0)
(2.9 -4.68822e-14 0)
(2.9 -2.68559e-14 0)
(2.9 -3.45972e-14 0)
(2.9 -8.27188e-14 0)
(2.9 1.99005e-14 0)
(2.9 8.48675e-14 0)
(2.9 1.8751e-14 0)
(2.9 2.94099e-16 0)
(2.9 3.61107e-14 0)
(2.9 -4.29609e-14 0)
(2.9 4.17364e-14 0)
(2.9 1.64718e-15 0)
(2.9 -1.28152e-15 0)
(2.9 -1.02405e-14 0)
(2.9 -1.56278e-14 0)
(2.9 -1.05515e-13 0)
(2.9 -5.78611e-14 0)
(2.9 1.09445e-14 0)
(2.9 -2.22447e-14 0)
(2.9 1.79111e-14 0)
(2.9 2.25173e-14 0)
(2.9 3.64053e-14 0)
(2.9 -2.89991e-14 0)
(2.9 3.24549e-15 0)
(2.9 1.36751e-14 0)
(2.9 2.14699e-14 0)
(2.9 -9.18772e-15 0)
(2.9 -7.29631e-14 0)
(2.9 -4.46423e-14 0)
(2.9 -2.99097e-14 0)
(2.9 -4.66166e-15 0)
(2.9 2.7125e-14 0)
(2.9 4.01258e-14 0)
(2.9 1.75809e-14 0)
(2.9 -6.72525e-15 0)
(2.9 -5.1291e-14 0)
(2.9 -3.52871e-14 0)
(2.9 -5.61328e-14 0)
(2.9 2.23903e-14 0)
(2.9 -8.9414e-15 0)
(2.9 -9.81674e-15 0)
(2.9 -4.26785e-15 0)
(2.9 -3.41664e-14 0)
(2.9 -7.13648e-15 0)
(2.9 -5.64756e-15 0)
(2.9 -6.06173e-14 0)
(2.9 7.05388e-14 0)
(2.9 6.63993e-14 0)
(2.9 6.35571e-15 0)
(2.9 -3.35125e-14 0)
(2.9 -4.57033e-14 0)
(2.9 -5.21738e-15 0)
(2.9 -1.04199e-15 0)
(2.9 -9.96975e-15 0)
(2.9 -6.73053e-15 0)
(2.9 9.46195e-15 0)
(2.9 -2.29564e-15 0)
(2.9 3.09541e-14 0)
(2.9 1.28562e-14 0)
(2.9 -6.79501e-15 0)
(2.9 1.52437e-14 0)
(2.9 2.50268e-14 0)
(2.9 -2.81706e-14 0)
(2.9 -4.72418e-14 0)
(2.9 2.19924e-14 0)
(2.9 7.20859e-14 0)
(2.9 6.71582e-14 0)
(2.9 -6.45589e-15 0)
(2.9 -1.25954e-14 0)
(2.9 -7.70592e-15 0)
(2.9 7.50361e-14 0)
(2.9 -7.45978e-15 0)
(2.9 1.95768e-14 0)
(2.9 -2.48706e-14 0)
(2.9 -3.92717e-14 0)
(2.9 -2.44195e-14 0)
(2.9 -4.04091e-16 0)
(2.9 3.1496e-14 0)
(2.9 2.26867e-14 0)
(2.9 6.1089e-14 0)
(2.9 3.85018e-15 0)
(2.9 -2.53215e-14 0)
(2.9 -3.49483e-14 0)
(2.9 1.30816e-14 0)
(2.9 -1.46287e-14 0)
(2.9 1.43006e-14 0)
(2.9 -3.04211e-14 0)
(2.9 2.40377e-14 0)
(2.9 2.36801e-15 0)
(2.9 -3.99609e-14 0)
(2.9 -1.01785e-14 0)
(2.9 -4.90798e-15 0)
(2.9 2.88734e-14 0)
(2.9 1.75523e-14 0)
(2.9 -1.59348e-14 0)
(2.9 -3.59275e-14 0)
(2.9 -2.25223e-14 0)
(2.9 2.28125e-14 0)
(2.9 9.06086e-15 0)
(2.9 -3.24888e-15 0)
(2.9 -1.64941e-14 0)
(2.9 -4.781e-14 0)
(2.9 -5.30599e-14 0)
(2.9 -2.65101e-14 0)
(2.9 3.62913e-15 0)
(2.9 1.55617e-14 0)
(2.9 8.8442e-14 0)
(2.9 1.83004e-14 0)
(2.9 6.3398e-15 0)
(2.9 -2.8186e-14 0)
(2.9 -7.28771e-14 0)
(2.9 -1.61388e-14 0)
(2.9 -8.12074e-14 0)
(2.9 -2.91665e-14 0)
(2.9 1.89458e-14 0)
(2.9 3.66283e-14 0)
(2.9 1.22206e-14 0)
(2.9 -1.6804e-14 0)
(2.9 -6.62374e-14 0)
(2.9 -8.55859e-14 0)
(2.9 8.77467e-15 0)
(2.9 5.48986e-16 0)
(2.9 -4.37493e-14 0)
(2.9 4.48363e-14 0)
(2.9 -9.33081e-15 0)
(2.9 1.2929e-14 0)
(2.9 9.01648e-14 0)
(2.9 1.36568e-14 0)
(2.9 -7.23765e-15 0)
(2.9 -2.00036e-14 0)
(2.9 2.85999e-14 0)
(2.9 9.91626e-15 0)
(2.9 -1.61446e-14 0)
(2.9 1.52417e-14 0)
(2.9 5.15041e-14 0)
(2.9 6.1559e-14 0)
(2.9 4.28675e-14 0)
(2.9 1.71167e-14 0)
(2.9 5.43175e-15 0)
(2.9 -3.92634e-14 0)
(2.9 -1.44543e-14 0)
(2.9 -1.34502e-15 0)
(2.9 6.38735e-14 0)
(2.9 4.39048e-14 0)
(2.9 3.58689e-14 0)
(2.9 1.85645e-14 0)
(2.9 -6.29192e-15 0)
(2.9 2.27987e-14 0)
(2.9 -1.05665e-14 0)
(2.9 -2.14356e-14 0)
(2.9 1.03508e-14 0)
(2.9 -4.80243e-14 0)
(2.9 8.7263e-15 0)
(2.9 2.03139e-14 0)
(2.9 -5.50157e-15 0)
(2.9 -4.55435e-14 0)
(2.9 -4.71487e-15 0)
(2.9 1.25105e-13 0)
(2.9 7.72757e-14 0)
(2.9 7.34571e-15 0)
(2.9 -4.69989e-14 0)
(2.9 -8.34666e-14 0)
(2.9 -7.40874e-14 0)
(2.9 -2.52192e-14 0)
(2.9 3.21696e-14 0)
(2.9 6.99677e-14 0)
(2.9 4.46941e-14 0)
(2.9 -3.69643e-14 0)
(2.9 2.44704e-14 0)
(2.9 -1.80265e-14 0)
(2.9 -6.66817e-14 0)
(2.9 1.87976e-15 0)
(2.9 -9.63926e-14 0)
(2.9 -6.13175e-14 0)
(2.9 2.98886e-15 0)
(2.9 1.08016e-13 0)
(2.9 3.88789e-14 0)
(2.9 9.12508e-15 0)
(2.9 -6.99706e-14 0)
(2.9 -1.27266e-13 0)
(2.9 -3.81565e-14 0)
(2.9 -4.36758e-14 0)
(2.9 -1.48262e-14 0)
(2.9 4.70887e-14 0)
(2.9 -2.33565e-14 0)
(2.9 -2.52856e-14 0)
(2.9 1.99725e-14 0)
(2.9 2.91114e-14 0)
(2.9 -2.12849e-14 0)
(2.9 -1.96479e-14 0)
(2.9 -5.79011e-14 0)
(2.9 -3.73904e-14 0)
(2.9 -5.38962e-14 0)
(2.9 7.10433e-14 0)
(2.9 4.15598e-14 0)
(2.9 7.61769e-14 0)
(2.9 6.61516e-14 0)
(2.9 -4.3517e-14 0)
(2.9 7.17682e-15 0)
(2.9 -2.10535e-14 0)
(2.9 -4.00998e-14 0)
(2.9 2.85188e-14 0)
(2.9 2.76853e-14 0)
(2.9 1.39236e-15 0)
(2.9 5.35541e-14 0)
(2.9 2.60224e-14 0)
(2.9 -1.03465e-14 0)
(2.9 2.48962e-14 0)
(2.9 -4.69646e-14 0)
(2.9 -1.22069e-14 0)
(2.9 -1.27924e-14 0)
(2.9 -5.69668e-15 0)
(2.9 2.7191e-14 0)
(2.9 -3.55569e-15 0)
(2.9 8.39297e-15 0)
(2.9 8.40821e-14 0)
(2.9 6.4076e-14 0)
(2.9 6.65196e-14 0)
(2.9 1.59839e-14 0)
(2.9 1.81419e-14 0)
(2.9 -6.86275e-14 0)
(2.9 -1.03375e-13 0)
(2.9 -3.17309e-14 0)
(2.9 -2.65808e-14 0)
(2.9 -4.49256e-14 0)
(2.9 6.45963e-14 0)
(2.9 2.65848e-14 0)
(2.9 -5.62947e-14 0)
(2.9 -2.55497e-14 0)
(2.9 -5.91396e-15 0)
(2.9 -4.76476e-14 0)
(2.9 -5.98732e-14 0)
(2.9 -1.98411e-14 0)
(2.9 -4.58513e-14 0)
(2.9 6.36722e-14 0)
(2.9 8.7818e-14 0)
(2.9 1.27115e-14 0)
(2.9 3.53766e-14 0)
(2.9 1.2863e-15 0)
(2.9 -7.2276e-14 0)
(2.9 -3.83313e-14 0)
(2.9 5.22019e-15 0)
(2.9 2.29063e-14 0)
(2.9 6.06739e-14 0)
(2.9 3.35716e-14 0)
(2.9 2.28255e-14 0)
(2.9 2.73564e-14 0)
(2.9 4.47669e-14 0)
(2.9 -2.11523e-14 0)
(2.9 5.47802e-14 0)
(2.9 -1.45725e-14 0)
(2.9 3.32469e-14 0)
(2.9 1.60413e-15 0)
(2.9 1.7274e-14 0)
(2.9 3.02994e-15 0)
(2.9 6.85871e-14 0)
(2.9 6.73654e-16 0)
(2.9 -4.94799e-14 0)
(2.9 6.79558e-15 0)
(2.9 3.0764e-14 0)
(2.9 -2.03562e-14 0)
(2.9 8.0499e-14 0)
(2.9 5.74772e-14 0)
(2.9 1.49496e-14 0)
(2.9 4.80695e-14 0)
(2.9 6.51472e-15 0)
(2.9 -1.83135e-14 0)
(2.9 1.80499e-14 0)
(2.9 -9.48483e-14 0)
(2.9 -2.34622e-14 0)
(2.9 1.80503e-16 0)
(2.9 2.60768e-14 0)
(2.9 2.11964e-15 0)
(2.9 -3.83328e-14 0)
(2.9 2.78041e-14 0)
(2.9 8.60232e-14 0)
(2.9 7.39928e-14 0)
(2.9 5.82492e-14 0)
(2.9 -4.94437e-14 0)
(2.9 -6.80675e-14 0)
(2.9 -6.18902e-14 0)
(2.9 -4.32709e-14 0)
(2.9 -3.02947e-14 0)
(2.9 -3.85163e-14 0)
(2.9 -4.99443e-14 0)
(2.9 6.04635e-15 0)
(2.9 -2.4887e-14 0)
(2.9 -6.71698e-14 0)
(2.9 -1.88266e-14 0)
(2.9 2.19613e-14 0)
(2.9 -7.50436e-14 0)
(2.9 -7.07335e-14 0)
(2.9 1.49621e-14 0)
(2.9 -2.74526e-14 0)
(2.9 6.80261e-15 0)
(2.9 5.48e-14 0)
(2.9 -1.8042e-14 0)
(2.9 -1.55793e-14 0)
(2.9 -4.15727e-14 0)
(2.9 -6.61393e-14 0)
(2.9 -4.12895e-14 0)
(2.9 -7.83665e-15 0)
(2.9 7.82818e-15 0)
(2.9 3.93746e-14 0)
(2.9 3.13768e-14 0)
(2.9 7.44824e-14 0)
(2.9 1.26911e-14 0)
(2.9 -3.02884e-14 0)
(2.9 9.40693e-15 0)
(2.9 3.4717e-14 0)
(2.9 8.17687e-14 0)
(2.9 4.02224e-14 0)
(2.9 5.4108e-14 0)
(2.9 -1.86217e-14 0)
(2.9 -1.46785e-14 0)
(2.9 4.51994e-14 0)
(2.9 6.83871e-15 0)
(2.9 2.54602e-14 0)
(2.9 -2.1594e-14 0)
(2.9 2.56593e-14 0)
(2.9 2.46273e-14 0)
(2.9 8.09941e-14 0)
(2.9 2.09452e-14 0)
(2.9 1.32656e-14 0)
(2.9 -1.69433e-14 0)
(2.9 -2.87538e-14 0)
(2.9 2.11579e-14 0)
(2.9 1.94966e-14 0)
(2.9 -3.0199e-14 0)
(2.9 -4.97217e-14 0)
(2.9 -1.0808e-14 0)
(2.9 9.85029e-15 0)
(2.9 -1.72204e-14 0)
(2.9 -5.13577e-14 0)
(2.9 -1.63408e-14 0)
(2.9 8.60781e-14 0)
(2.9 4.33165e-14 0)
(2.9 3.47582e-14 0)
(2.9 -2.95297e-14 0)
(2.9 -3.72117e-14 0)
(2.9 6.34787e-14 0)
(2.9 7.07405e-14 0)
(2.9 2.02428e-15 0)
(2.9 -1.08154e-14 0)
(2.9 -1.06941e-15 0)
(2.9 1.2682e-16 0)
(2.9 -2.69929e-14 0)
(2.9 -7.55329e-14 0)
(2.9 -7.65066e-14 0)
(2.9 5.50818e-14 0)
(2.9 1.70925e-14 0)
(2.9 -5.64996e-14 0)
(2.9 -5.58239e-14 0)
(2.9 -1.22016e-14 0)
(2.9 -4.73872e-14 0)
(2.9 9.10079e-16 0)
(2.9 -4.67111e-14 0)
(2.9 -7.09216e-14 0)
(2.9 4.24221e-14 0)
(2.9 -4.63838e-14 0)
(2.9 -2.41856e-14 0)
(2.9 -6.56267e-14 0)
(2.9 -6.64353e-14 0)
(2.9 -7.43537e-15 0)
(2.9 1.44765e-14 0)
(2.9 5.26357e-14 0)
(2.9 -2.56534e-14 0)
(2.9 -1.00308e-14 0)
(2.9 -4.35271e-14 0)
(2.9 2.72955e-14 0)
(2.9 1.89921e-14 0)
(2.9 5.70119e-14 0)
(2.9 2.44183e-16 0)
(2.9 8.09096e-14 0)
(2.9 7.3091e-14 0)
(2.9 -3.334e-14 0)
(2.9 5.68284e-16 0)
(2.9 -4.67574e-14 0)
(2.9 2.63314e-15 0)
(2.9 2.57593e-14 0)
(2.9 8.9786e-14 0)
(2.9 3.02867e-14 0)
(2.9 4.19189e-16 0)
(2.9 8.24532e-16 0)
(2.9 -3.99645e-14 0)
(2.9 1.2894e-14 0)
(2.9 4.44924e-15 0)
(2.9 4.24787e-14 0)
(2.9 5.50692e-14 0)
(2.9 -6.95608e-14 0)
(2.9 -1.02507e-14 0)
(2.9 -7.92747e-15 0)
(2.9 -8.61819e-14 0)
(2.9 -1.99258e-14 0)
(2.9 -1.34983e-14 0)
(2.9 2.33618e-14 0)
(2.9 2.6956e-14 0)
(2.9 2.45274e-15 0)
(2.9 -1.22467e-14 0)
(2.9 1.59744e-14 0)
(2.9 6.23685e-14 0)
(2.9 8.57624e-14 0)
(2.9 2.41486e-14 0)
(2.9 -1.42035e-15 0)
(2.9 -1.88108e-14 0)
(2.9 8.00622e-15 0)
(2.9 -2.12908e-14 0)
(2.9 -3.46086e-14 0)
(2.9 -4.48332e-14 0)
(2.9 3.21595e-14 0)
(2.9 4.91089e-14 0)
(2.9 -2.32473e-14 0)