/*--------------------------------*- C++ -*----------------------------------*\
| =========                 |                                                 |
| \\      /  F ield         | OpenFOAM: The Open Source CFD Toolbox           |
|  \\    /   O peration     | Version:  2412                                  |
|   \\  /    A nd           | Website:  www.openfoam.com                      |
|    \\/     M anipulation  |                                                 |
\*---------------------------------------------------------------------------*/
FoamFile
{
    version     2.0;
    format      ascii;
    arch        "LSB;label=32;scalar=64";
    class       volScalarField;
    location    "0.0356474";
    object      TTR;
}
// * * * * * * * * * * * * * * * * * * * * * * * * * * * * * * * * * * * * * //

dimensions      [0 0 0 1 0 0 0];

internalField   nonuniform List<scalar> 
100
(
204.25
204.326
204.036
204.492
203.647
204.844
203.003
205.434
202.193
206.058
201.596
206.354
201.503
206.076
201.889
205.499
202.45
204.863
202.927
204.337
203.228
203.971
203.386
203.74
203.44
203.597
203.439
203.509
203.404
203.421
203.337
203.31
203.288
203.223
203.286
203.197
203.213
203.256
203.237
204.158
243.977
273.476
278.939
277.169
277.107
278.391
280.167
281.473
282.097
282.256
281.728
281.397
282.684
283.611
284.508
285.467
286.94
285.497
286.977
283.682
285.862
284.619
286.962
289.154
285.156
295.64
282.726
296.958
285.639
295.48
293.872
287.935
301.077
286.348
301.392
289.168
298.214
297.084
297.812
300.342
297.979
300.678
298.698
302.402
302.691
302.404
303.355
304.261
305.488
329.388
363.163
399.411
413.969
424.693
423.292
427.518
422.968
424.039
421.253
421.445
)
;

boundaryField
{
    sides
    {
        type            zeroGradient;
    }
    empty
    {
        type            empty;
    }
}


// ************************************************************************* //
