/*--------------------------------*- C++ -*----------------------------------*\
| =========                 |                                                 |
| \\      /  F ield         | OpenFOAM: The Open Source CFD Toolbox           |
|  \\    /   O peration     | Version:  2412                                  |
|   \\  /    A nd           | Website:  www.openfoam.com                      |
|    \\/     M anipulation  |                                                 |
\*---------------------------------------------------------------------------*/
FoamFile
{
    version     2.0;
    format      ascii;
    arch        "LSB;label=32;scalar=64";
    class       volVectorField;
    location    "0.00831824";
    object      U;
}
// * * * * * * * * * * * * * * * * * * * * * * * * * * * * * * * * * * * * * //

dimensions      [0 1 -1 0 0 0 0];

internalField   nonuniform List<vector> 
100
(
(4.30257e-14 0 0)
(1.12458e-13 0 0)
(1.43798e-13 0 0)
(1.20724e-13 0 0)
(-6.39274e-14 0 0)
(-7.06616e-14 0 0)
(-1.14394e-13 0 0)
(-6.71338e-14 0 0)
(-1.67778e-14 0 0)
(-4.63414e-14 0 0)
(1.77417e-14 0 0)
(3.97809e-14 0 0)
(-8.91294e-14 0 0)
(-8.10458e-14 0 0)
(-4.72718e-14 0 0)
(-2.81123e-14 0 0)
(1.34065e-12 0 0)
(6.01295e-10 0 0)
(2.4664e-07 0 0)
(6.51484e-05 0 0)
(0.00824845 0 0)
(0.350362 0 0)
(3.92683 0 0)
(14.827 0 0)
(29.5001 0 0)
(43.0209 0 0)
(54.5912 0 0)
(65.04 0 0)
(75.0354 0 0)
(84.9052 0 0)
(94.7264 0 0)
(104.642 0 0)
(114.41 0 0)
(124.59 0 0)
(134.011 0 0)
(144.709 0 0)
(153.54 0 0)
(164.282 0 0)
(173.596 0 0)
(182.693 0 0)
(193.392 0 0)
(202.048 0 0)
(212.419 0 0)
(221.288 0 0)
(231.678 0 0)
(241.856 0 0)
(252.303 0 0)
(258.85 0 0)
(267.054 0 0)
(278.846 0 0)
(286.637 0 0)
(287.85 0 0)
(279.855 0 0)
(277.075 0 0)
(286.381 0 0)
(288.477 0 0)
(283.978 0 0)
(276.811 0 0)
(276.713 0 0)
(286.861 0 0)
(288.179 0 0)
(285.072 0 0)
(278.827 0 0)
(279.01 0 0)
(283.857 0 0)
(288.498 0 0)
(286.014 0 0)
(283.611 0 0)
(278.143 0 0)
(277.408 0 0)
(279.375 0 0)
(281.101 0 0)
(283.725 0 0)
(284.079 0 0)
(280.235 0 0)
(279.543 0 0)
(280.318 0 0)
(282.056 0 0)
(283.846 0 0)
(283.751 0 0)
(281.494 0 0)
(277.437 0 0)
(276.615 0 0)
(276.682 0 0)
(278.8 0 0)
(281.767 0 0)
(283.544 0 0)
(289.006 0 0)
(293.912 0 0)
(271.289 0 0)
(113.763 0 0)
(2.47295 0 0)
(0.00259174 0 0)
(4.38683e-07 0 0)
(4.2568e-11 0 0)
(-9.24159e-16 0 0)
(-7.29131e-14 0 0)
(-7.35959e-14 0 0)
(-2.67467e-14 0 0)
(6.49914e-14 0 0)
)
;

boundaryField
{
    sides
    {
        type            fixedValue;
        value           uniform (0 0 0);
    }
    empty
    {
        type            empty;
    }
}


// ************************************************************************* //
