/*--------------------------------*- C++ -*----------------------------------*\
| =========                 |                                                 |
| \\      /  F ield         | OpenFOAM: The Open Source CFD Toolbox           |
|  \\    /   O peration     | Version:  2412                                  |
|   \\  /    A nd           | Website:  www.openfoam.com                      |
|    \\/     M anipulation  |                                                 |
\*---------------------------------------------------------------------------*/
FoamFile
{
    version     2.0;
    format      ascii;
    arch        "LSB;label=32;scalar=64";
    class       volVectorField;
    location    "8.82413e-05";
    object      U;
}
// * * * * * * * * * * * * * * * * * * * * * * * * * * * * * * * * * * * * * //

dimensions      [0 1 -1 0 0 0 0];

internalField   nonuniform List<vector> 
1800
(
(2.9 5.6105e-15 0)
(2.9 6.20537e-14 0)
(2.9 -3.58032e-14 0)
(2.9 2.15712e-14 0)
(2.9 2.53662e-14 0)
(2.9 1.61795e-14 0)
(2.9 -1.40663e-14 0)
(2.9 -1.63396e-15 0)
(2.9 -7.5456e-15 0)
(2.9 3.74822e-14 0)
(2.9 4.39508e-14 0)
(2.9 3.23114e-14 0)
(2.9 2.71233e-15 0)
(2.9 -1.11371e-14 0)
(2.9 -2.60881e-14 0)
(2.9 -4.06242e-15 0)
(2.9 5.19206e-15 0)
(2.9 -2.53427e-14 0)
(2.9 -4.06952e-14 0)
(2.9 -2.37033e-14 0)
(2.9 -4.56688e-14 0)
(2.9 -3.6707e-14 0)
(2.9 -7.09419e-15 0)
(2.9 -6.32447e-15 0)
(2.9 1.09115e-14 0)
(2.9 -1.68885e-14 0)
(2.9 -2.36933e-14 0)
(2.9 -4.01361e-16 0)
(2.9 4.92991e-15 0)
(2.9 2.26389e-16 0)
(2.9 -1.46459e-14 0)
(2.9 -1.17474e-14 0)
(2.9 -4.33602e-15 0)
(2.9 -1.74731e-14 0)
(2.9 -2.78261e-14 0)
(2.9 -5.34772e-14 0)
(2.9 -1.54551e-14 0)
(2.9 -1.03237e-14 0)
(2.9 -3.05476e-14 0)
(2.9 -2.55497e-14 0)
(2.9 -1.9283e-14 0)
(2.9 1.23236e-14 0)
(2.9 2.08382e-14 0)
(2.9 -2.68005e-14 0)
(2.9 -2.06283e-14 0)
(2.9 -2.53288e-14 0)
(2.9 -3.88603e-14 0)
(2.9 -2.90335e-14 0)
(2.9 -3.29277e-14 0)
(2.9 -2.9833e-14 0)
(2.9 -3.0922e-14 0)
(2.9 -1.3629e-14 0)
(2.9 -7.72105e-15 0)
(2.9 -2.68014e-14 0)
(2.9 1.24747e-14 0)
(2.9 -3.90663e-14 0)
(2.9 -8.16952e-15 0)
(2.9 -4.03525e-14 0)
(2.9 9.63024e-17 0)
(2.9 -1.13059e-14 0)
(2.9 1.62628e-14 0)
(2.9 -5.57982e-16 0)
(2.9 -9.90822e-14 0)
(2.9 -1.35729e-14 0)
(2.9 -3.60971e-14 0)
(2.9 2.90975e-14 0)
(2.9 -1.18004e-14 0)
(2.9 5.10666e-18 0)
(2.9 -3.2096e-14 0)
(2.9 -1.03743e-14 0)
(2.9 2.61397e-14 0)
(2.9 2.5577e-15 0)
(2.9 6.47749e-15 0)
(2.9 6.96248e-15 0)
(2.9 1.41255e-14 0)
(2.9 4.09811e-14 0)
(2.9 2.48611e-14 0)
(2.9 -9.00403e-14 0)
(2.9 -7.6229e-14 0)
(2.9 -7.99334e-14 0)
(2.9 -1.08744e-13 0)
(2.9 -8.55214e-14 0)
(2.9 -1.34687e-14 0)
(2.9 -7.54386e-15 0)
(2.9 -1.20433e-14 0)
(2.9 -6.40497e-14 0)
(2.9 -4.74601e-14 0)
(2.9 2.06165e-15 0)
(2.9 3.08141e-14 0)
(2.9 -7.0755e-14 0)
(2.9 -7.10321e-14 0)
(2.9 -3.70759e-14 0)
(2.9 -1.37702e-14 0)
(2.9 -5.92977e-14 0)
(2.9 -1.09433e-13 0)
(2.9 -1.02988e-13 0)
(2.9 -5.35619e-14 0)
(2.9 -2.93803e-14 0)
(2.9 -4.7503e-14 0)
(2.9 -4.43045e-14 0)
(2.9 -5.86203e-14 0)
(2.9 8.26754e-15 0)
(2.9 -1.50262e-14 0)
(2.9 -1.23557e-14 0)
(2.9 -5.51708e-14 0)
(2.9 -8.92721e-14 0)
(2.9 -1.44079e-13 0)
(2.9 -1.05943e-13 0)
(2.9 -6.79844e-14 0)
(2.9 -8.69163e-14 0)
(2.9 -4.79911e-14 0)
(2.9 -4.4147e-14 0)
(2.9 -1.29668e-14 0)
(2.9 -5.11886e-14 0)
(2.9 -2.56509e-14 0)
(2.9 -3.70481e-14 0)
(2.9 -1.13343e-14 0)
(2.9 -5.80106e-14 0)
(2.9 8.05701e-15 0)
(2.9 -4.40655e-14 0)
(2.9 -7.99448e-15 0)
(2.9 -4.5649e-14 0)
(2.9 -1.03835e-13 0)
(2.9 -4.70585e-14 0)
(2.9 9.08886e-15 0)
(2.9 -1.51673e-14 0)
(2.9 -1.78683e-14 0)
(2.9 1.53261e-14 0)
(2.9 3.81427e-14 0)
(2.9 2.41891e-14 0)
(2.9 7.39557e-14 0)
(2.9 -3.07933e-14 0)
(2.9 5.39386e-14 0)
(2.9 5.20353e-14 0)
(2.9 4.31676e-14 0)
(2.9 8.33589e-14 0)
(2.9 7.61257e-14 0)
(2.9 2.73096e-14 0)
(2.9 -1.41311e-14 0)
(2.9 -4.39535e-14 0)
(2.9 -9.36887e-14 0)
(2.9 -7.12522e-14 0)
(2.9 -4.15234e-15 0)
(2.9 -1.66774e-14 0)
(2.9 -2.73512e-14 0)
(2.9 -2.33868e-14 0)
(2.9 4.04765e-14 0)
(2.9 1.00714e-14 0)
(2.9 1.71016e-14 0)
(2.9 3.73944e-15 0)
(2.9 -9.59435e-14 0)
(2.9 -7.79783e-14 0)
(2.9 -8.47119e-14 0)
(2.9 -6.90522e-14 0)
(2.9 -8.21941e-14 0)
(2.9 -3.86816e-14 0)
(2.9 -3.39141e-14 0)
(2.9 -6.27191e-14 0)
(2.9 -7.63842e-14 0)
(2.9 -6.31702e-14 0)
(2.9 -1.14905e-13 0)
(2.9 -8.28449e-14 0)
(2.9 -6.62148e-14 0)
(2.9 -3.09946e-14 0)
(2.9 -3.88009e-14 0)
(2.9 -1.15712e-13 0)
(2.9 -1.61932e-13 0)
(2.9 -8.29226e-14 0)
(2.9 -4.76203e-14 0)
(2.9 -1.76846e-14 0)
(2.9 -4.62161e-14 0)
(2.9 -3.55555e-14 0)
(2.9 -3.66902e-14 0)
(2.9 -6.16368e-14 0)
(2.9 -4.16597e-14 0)
(2.9 -4.17926e-15 0)
(2.9 -3.69125e-14 0)
(2.9 -2.72591e-14 0)
(2.9 5.01934e-15 0)
(2.9 2.54289e-15 0)
(2.9 -1.6446e-14 0)
(2.9 -6.75418e-14 0)
(2.9 -5.31697e-14 0)
(2.9 -7.00267e-14 0)
(2.9 9.65967e-15 0)
(2.9 -2.96871e-15 0)
(2.9 -2.73815e-14 0)
(2.9 -4.18083e-14 0)
(2.9 1.62901e-14 0)
(2.9 5.20681e-14 0)
(2.9 4.07415e-14 0)
(2.9 -1.38601e-14 0)
(2.9 3.60374e-15 0)
(2.9 -1.00092e-15 0)
(2.9 2.34978e-14 0)
(2.9 3.89671e-14 0)
(2.9 4.07637e-14 0)
(2.9 2.54924e-14 0)
(2.9 -2.83718e-14 0)
(2.9 -3.39549e-14 0)
(2.9 -4.84256e-14 0)
(2.9 -5.17412e-14 0)
(2.9 -1.15557e-14 0)
(2.9 1.02566e-14 0)
(2.9 -1.34413e-14 0)
(2.9 -2.52268e-14 0)
(2.9 2.0892e-14 0)
(2.9 1.17107e-14 0)
(2.9 1.67344e-14 0)
(2.9 4.3051e-15 0)
(2.9 -4.4402e-14 0)
(2.9 -5.93989e-14 0)
(2.9 -8.40572e-14 0)
(2.9 -7.1667e-14 0)
(2.9 -6.23845e-14 0)
(2.9 -4.12411e-14 0)
(2.9 -3.9096e-14 0)
(2.9 -3.3345e-14 0)
(2.9 -3.13173e-14 0)
(2.9 -8.65596e-14 0)
(2.9 -1.27953e-13 0)
(2.9 -3.84336e-14 0)
(2.9 -2.53071e-14 0)
(2.9 -2.01074e-14 0)
(2.9 -1.35641e-14 0)
(2.9 -4.44779e-14 0)
(2.9 -8.91337e-14 0)
(2.9 -7.41856e-14 0)
(2.9 -3.26276e-14 0)
(2.9 -1.52617e-14 0)
(2.9 -2.81123e-14 0)
(2.9 -5.32224e-14 0)
(2.9 -6.63462e-14 0)
(2.9 -7.04499e-14 0)
(2.9 -5.09284e-14 0)
(2.9 -2.62149e-14 0)
(2.9 -3.59205e-14 0)
(2.9 -2.75977e-16 0)
(2.9 7.18268e-14 0)
(2.9 6.67865e-14 0)
(2.9 -6.08144e-15 0)
(2.9 -9.11218e-14 0)
(2.9 -1.2314e-14 0)
(2.9 -5.96179e-14 0)
(2.9 1.36645e-14 0)
(2.9 -4.38892e-14 0)
(2.9 -1.02994e-14 0)
(2.9 -3.82449e-15 0)
(2.9 1.41361e-14 0)
(2.9 8.78865e-14 0)
(2.9 2.88892e-14 0)
(2.9 -2.55883e-14 0)
(2.9 -3.40209e-14 0)
(2.9 -3.23572e-14 0)
(2.9 -8.7437e-14 0)
(2.9 -1.63104e-14 0)
(2.9 9.12984e-15 0)
(2.9 -3.58446e-14 0)
(2.9 2.01505e-14 0)
(2.9 -8.81934e-14 0)
(2.9 -2.33485e-14 0)
(2.9 -6.58122e-14 0)
(2.9 -1.76833e-14 0)
(2.9 -3.23689e-14 0)
(2.9 7.35344e-15 0)
(2.9 -1.37189e-14 0)
(2.9 2.18797e-14 0)
(2.9 -1.97129e-14 0)
(2.9 1.8283e-14 0)
(2.9 3.78644e-14 0)
(2.9 -4.14735e-14 0)
(2.9 -5.43728e-14 0)
(2.9 -2.09438e-14 0)
(2.9 -3.70032e-14 0)
(2.9 -7.65557e-14 0)
(2.9 -5.74869e-14 0)
(2.9 -2.73659e-14 0)
(2.9 -9.09224e-15 0)
(2.9 1.43867e-14 0)
(2.9 -4.82808e-14 0)
(2.9 -1.81897e-14 0)
(2.9 1.99253e-14 0)
(2.9 1.75919e-14 0)
(2.9 9.34613e-14 0)
(2.9 2.44986e-14 0)
(2.9 1.79616e-14 0)
(2.9 -1.07079e-14 0)
(2.9 -5.27386e-14 0)
(2.9 -7.16863e-15 0)
(2.9 -2.21282e-14 0)
(2.9 1.34887e-14 0)
(2.9 -1.26059e-14 0)
(2.9 -4.37158e-14 0)
(2.9 -6.8229e-14 0)
(2.9 -1.01189e-13 0)
(2.9 -7.68562e-14 0)
(2.9 1.1422e-14 0)
(2.9 6.68779e-14 0)
(2.9 8.73193e-14 0)
(2.9 8.04429e-15 0)
(2.9 -2.98037e-15 0)
(2.9 -1.41382e-14 0)
(2.9 -2.47868e-14 0)
(2.9 -4.68225e-14 0)
(2.9 -1.44221e-14 0)
(2.9 -9.03598e-14 0)
(2.9 -6.12936e-14 0)
(2.9 1.22022e-14 0)
(2.9 5.77549e-15 0)
(2.9 7.92703e-14 0)
(2.9 1.77918e-14 0)
(2.9 1.70202e-14 0)
(2.9 4.71975e-14 0)
(2.9 9.63085e-15 0)
(2.9 -4.05378e-14 0)
(2.9 -2.01434e-14 0)
(2.9 -3.13997e-15 0)
(2.9 -2.15666e-14 0)
(2.9 -7.18528e-15 0)
(2.9 -1.63329e-14 0)
(2.9 -2.13086e-14 0)
(2.9 -1.74857e-14 0)
(2.9 5.21098e-15 0)
(2.9 8.98427e-15 0)
(2.9 2.08522e-14 0)
(2.9 -1.37124e-14 0)
(2.9 2.30023e-14 0)
(2.9 -2.044e-14 0)
(2.9 -2.2562e-14 0)
(2.9 5.99615e-14 0)
(2.9 -4.03819e-14 0)
(2.9 1.62653e-14 0)
(2.9 1.22836e-14 0)
(2.9 -9.21736e-15 0)
(2.9 -3.45e-14 0)
(2.9 -8.75563e-14 0)
(2.9 -4.85218e-14 0)
(2.9 3.18986e-14 0)
(2.9 2.38842e-14 0)
(2.9 -9.46468e-15 0)
(2.9 5.29692e-14 0)
(2.9 9.57803e-15 0)
(2.9 2.35385e-14 0)
(2.9 3.75956e-14 0)
(2.9 1.67674e-14 0)
(2.9 -3.86387e-14 0)
(2.9 -6.16129e-14 0)
(2.9 1.11518e-15 0)
(2.9 2.87501e-14 0)
(2.9 5.40223e-14 0)
(2.9 5.73718e-14 0)
(2.9 3.82608e-14 0)
(2.9 6.38733e-15 0)
(2.9 -1.56036e-14 0)
(2.9 -2.88142e-14 0)
(2.9 -1.40171e-14 0)
(2.9 3.45393e-15 0)
(2.9 6.79009e-14 0)
(2.9 2.94503e-14 0)
(2.9 -8.37468e-14 0)
(2.9 -4.11343e-16 0)
(2.9 3.58684e-14 0)
(2.9 1.80362e-14 0)
(2.9 -1.78443e-14 0)
(2.9 -1.72902e-14 0)
(2.9 -6.80418e-14 0)
(2.9 -2.84275e-14 0)
(2.9 -1.68603e-14 0)
(2.9 1.82592e-14 0)
(2.9 1.06031e-14 0)
(2.9 3.2757e-14 0)
(2.9 7.55786e-14 0)
(2.9 3.318e-14 0)
(2.9 -2.32759e-14 0)
(2.9 -6.63845e-15 0)
(2.9 -5.38938e-14 0)
(2.9 -1.26416e-14 0)
(2.9 -2.67913e-14 0)
(2.9 6.77061e-15 0)
(2.9 6.54916e-14 0)
(2.9 2.88846e-14 0)
(2.9 8.4594e-15 0)
(2.9 -2.02699e-14 0)
(2.9 -3.30519e-14 0)
(2.9 8.50406e-15 0)
(2.9 5.20005e-14 0)
(2.9 4.30966e-14 0)
(2.9 1.74003e-14 0)
(2.9 -7.29718e-14 0)
(2.9 1.02794e-14 0)
(2.9 -2.53605e-14 0)
(2.9 7.40652e-14 0)
(2.9 2.83737e-14 0)
(2.9 4.50594e-16 0)
(2.9 -4.92252e-14 0)
(2.9 -5.10673e-14 0)
(2.9 8.01028e-15 0)
(2.9 2.69071e-14 0)
(2.9 1.01895e-14 0)
(2.9 -2.46377e-14 0)
(2.9 7.77352e-14 0)
(2.9 3.39607e-14 0)
(2.9 2.66499e-14 0)
(2.9 -5.38809e-15 0)
(2.9 6.47439e-15 0)
(2.9 -4.02519e-16 0)
(2.9 5.70809e-15 0)
(2.9 1.5065e-15 0)
(2.9 -9.83425e-15 0)
(2.9 3.61692e-14 0)
(2.9 1.5303e-14 0)
(2.9 -7.45453e-15 0)
(2.9 3.9914e-14 0)
(2.9 -2.43483e-14 0)
(2.9 -3.40484e-14 0)
(2.9 4.18064e-14 0)
(2.9 -1.13183e-14 0)
(2.9 -3.48648e-14 0)
(2.9 -4.21961e-14 0)
(2.9 -1.09302e-13 0)
(2.9 -3.57942e-15 0)
(2.9 6.07272e-14 0)
(2.9 3.96887e-14 0)
(2.9 -1.90169e-14 0)
(2.9 -3.38575e-14 0)
(2.9 -3.64082e-15 0)
(2.9 2.0492e-14 0)
(2.9 -7.20024e-15 0)
(2.9 3.92481e-14 0)
(2.9 1.176e-14 0)
(2.9 9.34364e-15 0)
(2.9 2.05971e-14 0)
(2.9 3.82515e-14 0)
(2.9 3.25936e-14 0)
(2.9 4.39364e-14 0)
(2.9 -4.87173e-14 0)
(2.9 -1.78553e-15 0)
(2.9 -8.15631e-15 0)
(2.9 6.46083e-14 0)
(2.9 7.23648e-14 0)
(2.9 8.64419e-14 0)
(2.9 2.70301e-14 0)
(2.9 -2.49954e-16 0)
(2.9 1.41164e-14 0)
(2.9 1.48118e-14 0)
(2.9 3.1057e-14 0)
(2.9 4.78003e-14 0)
(2.9 1.5491e-14 0)
(2.9 -2.62026e-14 0)
(2.9 6.36314e-14 0)
(2.9 1.79764e-14 0)
(2.9 3.19225e-14 0)
(2.9 5.93516e-14 0)
(2.9 4.76431e-14 0)
(2.9 3.77672e-14 0)
(2.9 3.23606e-14 0)
(2.9 6.20016e-14 0)
(2.9 1.02847e-14 0)
(2.9 -1.3893e-14 0)
(2.9 -6.27262e-14 0)
(2.9 1.00263e-13 0)
(2.9 8.91934e-14 0)
(2.9 7.08368e-14 0)
(2.9 -1.65025e-14 0)
(2.9 3.66957e-15 0)
(2.9 1.23794e-14 0)
(2.9 5.59989e-14 0)
(2.9 5.56673e-14 0)
(2.9 2.78594e-14 0)
(2.9 6.96364e-15 0)
(2.9 2.08054e-14 0)
(2.9 3.7557e-14 0)
(2.9 7.71479e-14 0)
(2.9 2.1189e-14 0)
(2.9 4.72029e-14 0)
(2.9 2.75395e-14 0)
(2.9 -2.81468e-14 0)
(2.9 -1.67281e-14 0)
(2.9 -8.38005e-14 0)
(2.9 -1.29702e-13 0)
(2.9 -1.63221e-14 0)
(2.9 5.74624e-14 0)
(2.9 5.84228e-15 0)
(2.9 -1.73541e-14 0)
(2.9 1.29996e-14 0)
(2.9 -6.33587e-15 0)
(2.9 -2.66768e-14 0)
(2.9 -9.0316e-15 0)
(2.9 4.15851e-14 0)
(2.9 4.74321e-14 0)
(2.9 2.16293e-14 0)
(2.9 2.01368e-14 0)
(2.9 6.00911e-14 0)
(2.9 2.53009e-14 0)
(2.9 1.33407e-14 0)
(2.9 -3.94293e-15 0)
(2.9 -5.648e-15 0)
(2.9 -9.84152e-15 0)
(2.9 2.82637e-14 0)
(2.9 5.17926e-14 0)
(2.9 7.09847e-14 0)
(2.9 5.19005e-14 0)
(2.9 -1.06731e-14 0)
(2.9 5.22071e-14 0)
(2.9 3.80687e-14 0)
(2.9 3.70915e-14 0)
(2.9 4.18607e-14 0)
(2.9 1.76516e-14 0)
(2.9 9.11484e-14 0)
(2.9 3.65699e-14 0)
(2.9 3.72186e-14 0)
(2.9 -1.67876e-14 0)
(2.9 3.38009e-14 0)
(2.9 2.16206e-14 0)
(2.9 3.66893e-14 0)
(2.9 1.2302e-13 0)
(2.9 4.05452e-14 0)
(2.9 7.28186e-15 0)
(2.9 5.33739e-14 0)
(2.9 -2.42949e-14 0)
(2.9 5.77789e-14 0)
(2.9 8.85226e-14 0)
(2.9 4.68049e-14 0)
(2.9 -3.48475e-14 0)
(2.9 -2.22127e-14 0)
(2.9 -5.78013e-14 0)
(2.9 5.18055e-15 0)
(2.9 4.59372e-14 0)
(2.9 9.5275e-14 0)
(2.9 2.36257e-15 0)
(2.9 2.75056e-14 0)
(2.9 9.70467e-14 0)
(2.9 2.26021e-14 0)
(2.9 5.0216e-14 0)
(2.9 1.28486e-14 0)
(2.9 3.32719e-14 0)
(2.9 2.66176e-14 0)
(2.9 -4.68065e-14 0)
(2.9 -6.1263e-14 0)
(2.9 -4.3474e-14 0)
(2.9 -5.50799e-14 0)
(2.9 -6.57416e-15 0)
(2.9 -5.31552e-15 0)
(2.9 5.54678e-14 0)
(2.9 4.46575e-14 0)
(2.9 6.34285e-14 0)
(2.9 2.26522e-14 0)
(2.9 -5.57948e-14 0)
(2.9 1.63745e-14 0)
(2.9 1.90697e-14 0)
(2.9 3.53798e-14 0)
(2.9 1.35044e-14 0)
(2.9 -9.35246e-15 0)
(2.9 2.02091e-14 0)
(2.9 -3.27573e-15 0)
(2.9 -1.7606e-14 0)
(2.9 -2.44736e-15 0)
(2.9 6.34971e-14 0)
(2.9 1.88656e-14 0)
(2.9 7.3319e-15 0)
(2.9 4.99667e-14 0)
(2.9 7.83869e-14 0)
(2.9 -3.28028e-14 0)
(2.9 2.41107e-14 0)
(2.9 3.73698e-14 0)
(2.9 -2.00808e-15 0)
(2.9 -2.44225e-15 0)
(2.9 9.94746e-15 0)
(2.9 6.18774e-14 0)
(2.9 -4.229e-14 0)
(2.9 2.64017e-14 0)
(2.9 -4.92378e-14 0)
(2.9 -6.63067e-14 0)
(2.9 -1.87742e-14 0)
(2.9 1.95435e-14 0)
(2.9 9.53413e-14 0)
(2.9 3.47242e-14 0)
(2.9 -2.45305e-15 0)
(2.9 3.76308e-14 0)
(2.9 1.04967e-14 0)
(2.9 1.86678e-14 0)
(2.9 7.21437e-14 0)
(2.9 1.18448e-15 0)
(2.9 -6.4181e-14 0)
(2.9 -6.95774e-14 0)
(2.9 1.26107e-14 0)
(2.9 3.72234e-14 0)
(2.9 1.51403e-14 0)
(2.9 3.41616e-14 0)
(2.9 5.07343e-16 0)
(2.9 9.82995e-15 0)
(2.9 3.91626e-14 0)
(2.9 -1.12495e-16 0)
(2.9 5.76127e-14 0)
(2.9 7.43154e-15 0)
(2.9 1.27835e-14 0)
(2.9 6.81324e-14 0)
(2.9 1.93801e-14 0)
(2.9 -3.3519e-14 0)
(2.9 3.75858e-14 0)
(2.9 -8.21925e-15 0)
(2.9 -2.60779e-14 0)
(2.9 5.58161e-14 0)
(2.9 9.34545e-14 0)
(2.9 1.29413e-14 0)
(2.9 1.07384e-13 0)
(2.9 9.33312e-14 0)
(2.9 4.78266e-14 0)
(2.9 -2.41889e-15 0)
(2.9 9.66742e-15 0)
(2.9 -1.40082e-14 0)
(2.9 -5.08196e-14 0)
(2.9 -9.68785e-14 0)
(2.9 -4.7935e-14 0)
(2.9 2.67688e-14 0)
(2.9 3.6887e-14 0)
(2.9 2.19297e-14 0)
(2.9 5.25673e-14 0)
(2.9 5.75503e-14 0)
(2.9 1.34962e-14 0)
(2.9 4.39224e-14 0)
(2.9 5.61302e-14 0)
(2.9 4.15701e-14 0)
(2.9 -1.2198e-15 0)
(2.9 2.12791e-14 0)
(2.9 1.66726e-14 0)
(2.9 -3.00831e-14 0)
(2.9 6.78391e-15 0)
(2.9 5.10679e-14 0)
(2.9 3.28082e-14 0)
(2.9 1.50257e-14 0)
(2.9 -2.93128e-14 0)
(2.9 -5.62242e-14 0)
(2.9 -4.1608e-14 0)
(2.9 4.22634e-14 0)
(2.9 7.59801e-14 0)
(2.9 2.65724e-14 0)
(2.9 -1.10958e-14 0)
(2.9 5.999e-15 0)
(2.9 8.63536e-15 0)
(2.9 -1.35475e-14 0)
(2.9 -1.18958e-14 0)
(2.9 1.64978e-14 0)
(2.9 -6.95543e-14 0)
(2.9 -3.31718e-14 0)
(2.9 5.22399e-14 0)
(2.9 9.21383e-14 0)
(2.9 4.58895e-14 0)
(2.9 -2.7848e-14 0)
(2.9 9.62206e-16 0)
(2.9 -5.75045e-15 0)
(2.9 -8.84961e-15 0)
(2.9 2.82818e-14 0)
(2.9 2.28803e-14 0)
(2.9 4.91229e-14 0)
(2.9 3.64729e-14 0)
(2.9 3.48502e-14 0)
(2.9 1.16247e-13 0)
(2.9 8.24868e-14 0)
(2.9 1.06444e-13 0)
(2.9 3.32405e-14 0)
(2.9 1.00537e-14 0)
(2.9 7.73813e-14 0)
(2.9 2.91943e-14 0)
(2.9 2.61864e-14 0)
(2.9 4.25949e-16 0)
(2.9 3.19666e-14 0)
(2.9 1.47118e-14 0)
(2.9 9.12983e-15 0)
(2.9 -5.11025e-14 0)
(2.9 -1.62815e-14 0)
(2.9 -5.28695e-14 0)
(2.9 -7.47942e-14 0)
(2.9 -1.70109e-14 0)
(2.9 -1.26256e-14 0)
(2.9 3.03559e-14 0)
(2.9 5.26484e-14 0)
(2.9 6.98189e-14 0)
(2.9 2.93802e-14 0)
(2.9 4.96564e-14 0)
(2.9 1.85089e-14 0)
(2.9 7.00263e-14 0)
(2.9 -3.84479e-15 0)
(2.9 -3.42738e-15 0)
(2.9 -2.13841e-14 0)
(2.9 1.90857e-14 0)
(2.9 -2.66687e-14 0)
(2.9 -3.16681e-14 0)
(2.9 3.88231e-14 0)
(2.9 -3.2782e-15 0)
(2.9 -1.22354e-14 0)
(2.9 7.70977e-15 0)
(2.9 1.8969e-14 0)
(2.9 3.04945e-14 0)
(2.9 5.63687e-14 0)
(2.9 -5.42656e-15 0)
(2.9 -3.62667e-15 0)
(2.9 5.29837e-14 0)
(2.9 -1.04706e-14 0)
(2.9 3.53454e-14 0)
(2.9 -3.72045e-14 0)
(2.9 -2.88008e-14 0)
(2.9 1.97852e-14 0)
(2.9 3.74452e-14 0)
(2.9 2.89187e-14 0)
(2.9 3.21339e-14 0)
(2.9 5.31718e-14 0)
(2.9 4.34665e-14 0)
(2.9 2.97712e-14 0)
(2.9 6.18954e-14 0)
(2.9 9.35645e-15 0)
(2.9 1.60457e-14 0)
(2.9 2.29261e-14 0)
(2.9 2.25943e-14 0)
(2.9 5.42885e-14 0)
(2.9 1.97904e-14 0)
(2.9 1.33891e-14 0)
(2.9 5.12916e-14 0)
(2.9 -2.21037e-14 0)
(2.9 5.06689e-14 0)
(2.9 1.57813e-15 0)
(2.9 -1.46388e-14 0)
(2.9 3.26375e-14 0)
(2.9 -1.40108e-14 0)
(2.9 -2.59107e-14 0)
(2.9 1.04612e-14 0)
(2.9 7.57138e-16 0)
(2.9 -2.16386e-14 0)
(2.9 2.36281e-14 0)
(2.9 -5.95124e-14 0)
(2.9 -5.07846e-16 0)
(2.9 2.43281e-14 0)
(2.9 2.06757e-14 0)
(2.9 3.49471e-14 0)
(2.9 -6.85112e-14 0)
(2.9 -1.77213e-14 0)
(2.9 2.43754e-14 0)
(2.9 3.01403e-14 0)
(2.9 -2.29595e-15 0)
(2.9 -8.3619e-15 0)
(2.9 -5.84597e-15 0)
(2.9 4.42537e-14 0)
(2.9 2.05925e-14 0)
(2.9 1.98609e-16 0)
(2.9 -7.38042e-14 0)
(2.9 2.34968e-14 0)
(2.9 -4.18596e-14 0)
(2.9 -8.55683e-15 0)
(2.9 1.64194e-14 0)
(2.9 -6.80287e-15 0)
(2.9 4.57551e-15 0)
(2.9 -6.31765e-15 0)
(2.9 6.73831e-15 0)
(2.9 4.21771e-14 0)
(2.9 -1.62726e-14 0)
(2.9 -6.9308e-15 0)
(2.9 -7.71375e-16 0)
(2.9 2.3296e-14 0)
(2.9 -4.47855e-14 0)
(2.9 -1.34135e-14 0)
(2.9 -4.56988e-14 0)
(2.9 -2.82076e-14 0)
(2.9 -2.60003e-14 0)
(2.9 6.18121e-14 0)
(2.9 4.22337e-14 0)
(2.9 3.41488e-14 0)
(2.9 3.5916e-14 0)
(2.9 1.03914e-14 0)
(2.9 -5.25129e-15 0)
(2.9 -1.67761e-14 0)
(2.9 1.61407e-14 0)
(2.9 -1.87409e-15 0)
(2.9 -1.24757e-14 0)
(2.9 1.64361e-14 0)
(2.9 -5.61849e-15 0)
(2.9 5.09645e-15 0)
(2.9 8.20207e-15 0)
(2.9 -1.65503e-14 0)
(2.9 -3.98097e-14 0)
(2.9 -2.32151e-14 0)
(2.9 -2.76544e-14 0)
(2.9 -4.69184e-14 0)
(2.9 1.94722e-14 0)
(2.9 6.21155e-14 0)
(2.9 -2.26547e-14 0)
(2.9 8.67115e-15 0)
(2.9 -3.43551e-14 0)
(2.9 -8.53452e-14 0)
(2.9 -1.2727e-14 0)
(2.9 -1.49664e-14 0)
(2.9 3.10596e-14 0)
(2.9 5.06166e-14 0)
(2.9 5.83428e-14 0)
(2.9 4.31307e-15 0)
(2.9 -9.36403e-14 0)
(2.9 -7.59261e-14 0)
(2.9 -4.27722e-14 0)
(2.9 8.2573e-15 0)
(2.9 -5.58024e-14 0)
(2.9 -2.99849e-14 0)
(2.9 -3.10098e-14 0)
(2.9 2.68901e-14 0)
(2.9 6.61331e-14 0)
(2.9 -1.11182e-14 0)
(2.9 -3.2703e-14 0)
(2.9 3.58531e-15 0)
(2.9 7.55949e-16 0)
(2.9 2.42098e-14 0)
(2.9 3.35907e-14 0)
(2.9 4.68375e-14 0)
(2.9 1.24857e-14 0)
(2.9 2.43781e-14 0)
(2.9 -6.556e-15 0)
(2.9 -3.29039e-16 0)
(2.9 -3.88594e-14 0)
(2.9 -1.63079e-14 0)
(2.9 1.05486e-14 0)
(2.9 -6.75385e-14 0)
(2.9 -4.09519e-14 0)
(2.9 -6.4474e-14 0)
(2.9 -8.40396e-14 0)
(2.9 -4.46759e-14 0)
(2.9 -2.64757e-15 0)
(2.9 6.19996e-14 0)
(2.9 1.06241e-13 0)
(2.9 1.06305e-13 0)
(2.9 4.19744e-14 0)
(2.9 1.82208e-15 0)
(2.9 -7.00054e-14 0)
(2.9 -8.26545e-16 0)
(2.9 -4.16905e-14 0)
(2.9 -9.73041e-15 0)
(2.9 2.15583e-14 0)
(2.9 3.2598e-14 0)
(2.9 -1.60654e-14 0)
(2.9 -4.12725e-15 0)
(2.9 -2.08715e-14 0)
(2.9 -4.47466e-14 0)
(2.9 -1.47887e-14 0)
(2.9 -2.50885e-14 0)
(2.9 -3.65568e-15 0)
(2.9 -2.39519e-14 0)
(2.9 -2.70547e-14 0)
(2.9 9.44328e-15 0)
(2.9 7.26785e-14 0)
(2.9 -1.27011e-14 0)
(2.9 4.19654e-14 0)
(2.9 3.43694e-15 0)
(2.9 -3.5941e-15 0)
(2.9 3.03319e-14 0)
(2.9 2.52586e-14 0)
(2.9 4.85221e-14 0)
(2.9 1.8962e-14 0)
(2.9 -4.3607e-14 0)
(2.9 -3.52626e-14 0)
(2.9 -1.02007e-14 0)
(2.9 -5.66823e-14 0)
(2.9 2.23048e-14 0)
(2.9 -3.92338e-14 0)
(2.9 2.25092e-14 0)
(2.9 -3.37793e-14 0)
(2.9 -1.62128e-14 0)
(2.9 2.7357e-14 0)
(2.9 1.31105e-14 0)
(2.9 4.61877e-14 0)
(2.9 1.46581e-14 0)
(2.9 -2.40503e-14 0)
(2.9 1.14332e-14 0)
(2.9 2.67156e-15 0)
(2.9 -3.10297e-14 0)
(2.9 -6.43107e-15 0)
(2.9 -2.55113e-14 0)
(2.9 2.5482e-14 0)
(2.9 3.30674e-14 0)
(2.9 1.71556e-14 0)
(2.9 -1.50116e-14 0)
(2.9 -7.15112e-15 0)
(2.9 -4.34379e-14 0)
(2.9 -2.07669e-14 0)
(2.9 -2.88229e-14 0)
(2.9 -3.34252e-14 0)
(2.9 -3.85316e-14 0)
(2.9 5.62984e-15 0)
(2.9 8.87818e-14 0)
(2.9 1.08431e-13 0)
(2.9 8.32488e-14 0)
(2.9 1.0025e-15 0)
(2.9 -2.5459e-14 0)
(2.9 -3.7369e-14 0)
(2.9 -1.981e-14 0)
(2.9 -2.55941e-14 0)
(2.9 -3.7689e-14 0)
(2.9 -1.27795e-15 0)
(2.9 1.94159e-14 0)
(2.9 6.43359e-14 0)
(2.9 4.17136e-14 0)
(2.9 -2.97966e-14 0)
(2.9 -2.83428e-14 0)
(2.9 -2.3944e-14 0)
(2.9 1.25561e-14 0)
(2.9 -4.59039e-14 0)
(2.9 4.01673e-14 0)
(2.9 -3.99989e-14 0)
(2.9 -5.12039e-15 0)
(2.9 4.934e-14 0)
(2.9 1.29851e-14 0)
(2.9 5.24961e-14 0)
(2.9 7.69769e-14 0)
(2.9 -1.04693e-14 0)
(2.9 3.08151e-14 0)
(2.9 -1.46428e-14 0)
(2.9 7.28072e-14 0)
(2.9 2.34768e-14 0)
(2.9 5.91648e-15 0)
(2.9 -2.62326e-14 0)
(2.9 2.5284e-14 0)
(2.9 -4.93361e-14 0)
(2.9 -1.60054e-14 0)
(2.9 -4.36129e-14 0)
(2.9 3.70545e-14 0)
(2.9 -5.0369e-14 0)
(2.9 -5.87548e-14 0)
(2.9 -4.33992e-14 0)
(2.9 -6.07407e-17 0)
(2.9 4.11829e-14 0)
(2.9 -1.91031e-15 0)
(2.9 -6.60376e-14 0)
(2.9 -7.39628e-15 0)
(2.9 -5.37711e-14 0)
(2.9 -5.33688e-14 0)
(2.9 -4.96971e-14 0)
(2.9 -7.45305e-14 0)
(2.9 -2.60064e-14 0)
(2.9 3.4437e-15 0)
(2.9 -9.64976e-15 0)
(2.9 -3.71166e-14 0)
(2.9 -3.04846e-14 0)
(2.9 -1.98312e-14 0)
(2.9 -2.4829e-14 0)
(2.9 4.67001e-16 0)
(2.9 6.74748e-14 0)
(2.9 -2.86781e-14 0)
(2.9 -1.89824e-15 0)
(2.9 6.42461e-14 0)
(2.9 6.61912e-14 0)
(2.9 4.91191e-14 0)
(2.9 2.88455e-14 0)
(2.9 -4.26774e-14 0)
(2.9 -7.76939e-14 0)
(2.9 -4.04972e-14 0)
(2.9 -4.33637e-14 0)
(2.9 -9.12192e-14 0)
(2.9 -4.20623e-14 0)
(2.9 -4.59647e-14 0)
(2.9 2.57823e-14 0)
(2.9 4.48065e-14 0)
(2.9 -4.88454e-14 0)
(2.9 1.04232e-14 0)
(2.9 9.61089e-15 0)
(2.9 6.53603e-15 0)
(2.9 -1.44397e-14 0)
(2.9 1.25618e-13 0)
(2.9 -7.73773e-15 0)
(2.9 3.01367e-14 0)
(2.9 9.15036e-15 0)
(2.9 2.97429e-14 0)
(2.9 -2.63677e-14 0)
(2.9 2.0991e-14 0)
(2.9 -6.84629e-14 0)
(2.9 -3.6374e-14 0)
(2.9 -2.55788e-14 0)
(2.9 1.32391e-14 0)
(2.9 4.90782e-14 0)
(2.9 5.40665e-14 0)
(2.9 -3.79689e-15 0)
(2.9 -4.28865e-15 0)
(2.9 2.76965e-14 0)
(2.9 -2.45224e-14 0)
(2.9 -1.56127e-14 0)
(2.9 -3.1234e-14 0)
(2.9 -1.11125e-13 0)
(2.9 -1.05574e-13 0)
(2.9 -3.88957e-14 0)
(2.9 1.33096e-14 0)
(2.9 1.97443e-14 0)
(2.9 3.19484e-14 0)
(2.9 4.47972e-14 0)
(2.9 -7.14917e-15 0)
(2.9 -9.66281e-14 0)
(2.9 -4.51094e-14 0)
(2.9 -5.78898e-14 0)
(2.9 9.86532e-15 0)
(2.9 6.42438e-15 0)
(2.9 -3.32885e-14 0)
(2.9 -4.03244e-14 0)
(2.9 -2.57342e-14 0)
(2.9 -2.99626e-14 0)
(2.9 -3.6453e-15 0)
(2.9 -7.8233e-14 0)
(2.9 -2.00043e-14 0)
(2.9 1.10668e-13 0)
(2.9 -1.68729e-14 0)
(2.9 -1.24378e-14 0)
(2.9 3.4082e-14 0)
(2.9 2.44362e-14 0)
(2.9 7.70821e-15 0)
(2.9 3.23131e-14 0)
(2.9 -1.76804e-14 0)
(2.9 -6.24649e-14 0)
(2.9 -1.789e-14 0)
(2.9 -6.74228e-15 0)
(2.9 -2.15264e-14 0)
(2.9 3.44855e-14 0)
(2.9 -4.17381e-14 0)
(2.9 -1.71609e-14 0)
(2.9 -4.28219e-14 0)
(2.9 -8.35426e-14 0)
(2.9 5.16839e-15 0)
(2.9 6.43964e-14 0)
(2.9 2.24926e-15 0)
(2.9 -1.1407e-15 0)
(2.9 3.55956e-14 0)
(2.9 -3.44913e-14 0)
(2.9 6.77132e-14 0)
(2.9 3.69719e-14 0)
(2.9 -1.649e-14 0)
(2.9 -1.3751e-14 0)
(2.9 -3.94802e-15 0)
(2.9 -9.35726e-14 0)
(2.9 -7.50676e-14 0)
(2.9 2.50741e-14 0)
(2.9 -1.66726e-14 0)
(2.9 2.13982e-14 0)
(2.9 1.9382e-14 0)
(2.9 3.93409e-14 0)
(2.9 -2.74382e-14 0)
(2.9 -5.57929e-15 0)
(2.9 1.60326e-14 0)
(2.9 2.12768e-14 0)
(2.9 -1.12392e-14 0)
(2.9 -6.52114e-14 0)
(2.9 -4.19119e-14 0)
(2.9 -4.44515e-14 0)
(2.9 2.45173e-15 0)
(2.9 2.56454e-14 0)
(2.9 3.40857e-14 0)
(2.9 2.03013e-14 0)
(2.9 -4.96929e-15 0)
(2.9 -6.50024e-14 0)
(2.9 -2.91864e-14 0)
(2.9 -5.05706e-14 0)
(2.9 2.25918e-14 0)
(2.9 1.22712e-15 0)
(2.9 -3.10506e-15 0)
(2.9 7.221e-15 0)
(2.9 -2.86127e-14 0)
(2.9 -2.2007e-14 0)
(2.9 -6.97035e-15 0)
(2.9 -6.11808e-14 0)
(2.9 6.5196e-14 0)
(2.9 7.69475e-14 0)
(2.9 1.244e-14 0)
(2.9 -2.3386e-14 0)
(2.9 -4.8916e-14 0)
(2.9 -1.12483e-14 0)
(2.9 -2.04059e-14 0)
(2.9 -1.33367e-14 0)
(2.9 -5.06613e-15 0)
(2.9 1.26458e-14 0)
(2.9 -1.00488e-15 0)
(2.9 1.99968e-14 0)
(2.9 8.69014e-15 0)
(2.9 -1.16133e-14 0)
(2.9 2.15773e-14 0)
(2.9 1.56473e-14 0)
(2.9 -2.59451e-14 0)
(2.9 -3.4159e-14 0)
(2.9 1.49642e-14 0)
(2.9 7.59653e-14 0)
(2.9 3.39566e-14 0)
(2.9 1.76814e-15 0)
(2.9 -1.56003e-14 0)
(2.9 3.33397e-15 0)
(2.9 1.25188e-14 0)
(2.9 1.86284e-14 0)
(2.9 2.60448e-14 0)
(2.9 -2.64974e-14 0)
(2.9 -2.01115e-14 0)
(2.9 -2.99234e-14 0)
(2.9 2.93384e-15 0)
(2.9 3.02191e-14 0)
(2.9 -2.30212e-15 0)
(2.9 5.8398e-14 0)
(2.9 7.1599e-16 0)
(2.9 -3.88336e-14 0)
(2.9 -3.51092e-14 0)
(2.9 1.27201e-14 0)
(2.9 -4.83894e-15 0)
(2.9 1.71778e-14 0)
(2.9 -3.31807e-14 0)
(2.9 2.51064e-14 0)
(2.9 7.74688e-15 0)
(2.9 -3.50748e-14 0)
(2.9 -4.04761e-14 0)
(2.9 -4.26305e-15 0)
(2.9 1.39573e-14 0)
(2.9 1.83133e-14 0)
(2.9 -2.59266e-15 0)
(2.9 -3.08631e-14 0)
(2.9 -2.93844e-14 0)
(2.9 2.11831e-14 0)
(2.9 2.6702e-15 0)
(2.9 1.64091e-14 0)
(2.9 -2.70823e-14 0)
(2.9 -3.05664e-14 0)
(2.9 -5.70371e-14 0)
(2.9 -3.46088e-14 0)
(2.9 9.21031e-17 0)
(2.9 2.08172e-14 0)
(2.9 8.40381e-14 0)
(2.9 1.5715e-14 0)
(2.9 3.13783e-15 0)
(2.9 -3.05029e-14 0)
(2.9 -7.54678e-14 0)
(2.9 -1.59928e-14 0)
(2.9 -7.56885e-14 0)
(2.9 -2.61713e-14 0)
(2.9 1.48399e-14 0)
(2.9 3.96878e-15 0)
(2.9 9.67932e-15 0)
(2.9 -2.11618e-14 0)
(2.9 -7.75071e-14 0)
(2.9 -6.86528e-14 0)
(2.9 1.30218e-14 0)
(2.9 -1.16041e-14 0)
(2.9 -2.85516e-14 0)
(2.9 4.83781e-14 0)
(2.9 -2.13029e-15 0)
(2.9 2.02324e-14 0)
(2.9 6.77324e-14 0)
(2.9 1.79458e-14 0)
(2.9 -2.45417e-14 0)
(2.9 1.32689e-14 0)
(2.9 2.7192e-14 0)
(2.9 -1.29532e-14 0)
(2.9 9.91609e-16 0)
(2.9 5.47753e-14 0)
(2.9 4.80625e-14 0)
(2.9 2.65001e-14 0)
(2.9 5.58955e-14 0)
(2.9 3.51104e-14 0)
(2.9 1.21071e-15 0)
(2.9 -2.4294e-14 0)
(2.9 -1.1643e-14 0)
(2.9 -1.10374e-14 0)
(2.9 5.64181e-14 0)
(2.9 5.01054e-14 0)
(2.9 2.62304e-14 0)
(2.9 -3.89611e-15 0)
(2.9 -2.29476e-14 0)
(2.9 8.75708e-15 0)
(2.9 -1.38815e-15 0)
(2.9 -4.44542e-14 0)
(2.9 -1.02566e-14 0)
(2.9 -4.81237e-14 0)
(2.9 -2.13852e-15 0)
(2.9 1.27305e-14 0)
(2.9 -6.44978e-15 0)
(2.9 -3.99858e-14 0)
(2.9 1.27909e-14 0)
(2.9 1.16406e-13 0)
(2.9 4.26616e-14 0)
(2.9 -1.39624e-14 0)
(2.9 -5.28409e-14 0)
(2.9 -9.68518e-14 0)
(2.9 -5.84338e-14 0)
(2.9 -2.52065e-14 0)
(2.9 3.0191e-14 0)
(2.9 1.03044e-13 0)
(2.9 4.23339e-14 0)
(2.9 -6.36158e-14 0)
(2.9 1.45067e-14 0)
(2.9 -4.14997e-14 0)
(2.9 -8.22011e-14 0)
(2.9 2.05826e-15 0)
(2.9 -8.06024e-14 0)
(2.9 -8.39495e-14 0)
(2.9 -4.52574e-15 0)
(2.9 9.40473e-14 0)
(2.9 3.60087e-14 0)
(2.9 3.60266e-14 0)
(2.9 -5.84997e-14 0)
(2.9 -1.13519e-13 0)
(2.9 -2.60735e-14 0)
(2.9 -5.97944e-14 0)
(2.9 -2.10088e-14 0)
(2.9 5.75395e-14 0)
(2.9 -1.36597e-14 0)
(2.9 -2.17123e-14 0)
(2.9 6.23453e-14 0)
(2.9 4.4073e-14 0)
(2.9 -9.38166e-15 0)
(2.9 -2.0143e-15 0)
(2.9 -4.93317e-14 0)
(2.9 -5.79519e-14 0)
(2.9 -6.00692e-14 0)
(2.9 4.00524e-14 0)
(2.9 2.88396e-14 0)
(2.9 9.31383e-14 0)
(2.9 6.58353e-14 0)
(2.9 -5.93887e-14 0)
(2.9 -6.46923e-15 0)
(2.9 -6.04905e-14 0)
(2.9 -2.216e-14 0)
(2.9 2.73984e-14 0)
(2.9 3.01667e-14 0)
(2.9 -3.00491e-15 0)
(2.9 5.08105e-14 0)
(2.9 1.56302e-14 0)
(2.9 -1.62628e-14 0)
(2.9 3.77369e-14 0)
(2.9 -3.18012e-14 0)
(2.9 -2.32535e-14 0)
(2.9 -2.71568e-15 0)
(2.9 -4.36773e-15 0)
(2.9 2.85692e-14 0)
(2.9 -2.87779e-15 0)
(2.9 7.52405e-16 0)
(2.9 5.24486e-14 0)
(2.9 6.50925e-14 0)
(2.9 5.59905e-14 0)
(2.9 1.46246e-14 0)
(2.9 1.83678e-14 0)
(2.9 -4.4705e-14 0)
(2.9 -8.2444e-14 0)
(2.9 -3.38998e-14 0)
(2.9 -2.12281e-14 0)
(2.9 -4.01617e-14 0)
(2.9 3.39058e-14 0)
(2.9 2.07013e-14 0)
(2.9 -4.96758e-14 0)
(2.9 -2.1882e-14 0)
(2.9 -6.84842e-15 0)
(2.9 -3.44312e-14 0)
(2.9 -3.96278e-14 0)
(2.9 3.26864e-15 0)
(2.9 -3.90004e-14 0)
(2.9 5.04937e-14 0)
(2.9 1.06568e-13 0)
(2.9 8.7041e-15 0)
(2.9 4.97224e-14 0)
(2.9 3.05313e-15 0)
(2.9 -6.61468e-14 0)
(2.9 -4.05506e-14 0)
(2.9 9.66122e-15 0)
(2.9 2.14272e-14 0)
(2.9 5.89588e-14 0)
(2.9 3.28084e-14 0)
(2.9 1.9834e-14 0)
(2.9 3.58533e-14 0)
(2.9 5.0614e-14 0)
(2.9 -1.98454e-14 0)
(2.9 1.68991e-14 0)
(2.9 -2.3603e-14 0)
(2.9 4.06752e-14 0)
(2.9 -8.86859e-16 0)
(2.9 1.08065e-14 0)
(2.9 8.71241e-15 0)
(2.9 9.12451e-14 0)
(2.9 -5.32662e-15 0)
(2.9 -6.90652e-14 0)
(2.9 1.92474e-14 0)
(2.9 -8.06904e-15 0)
(2.9 -4.50507e-14 0)
(2.9 7.06176e-14 0)
(2.9 4.05356e-14 0)
(2.9 -8.84612e-15 0)
(2.9 5.62495e-14 0)
(2.9 1.0377e-14 0)
(2.9 -1.81865e-14 0)
(2.9 6.11063e-15 0)
(2.9 -7.01185e-14 0)
(2.9 7.16834e-15 0)
(2.9 9.23127e-15 0)
(2.9 2.88198e-14 0)
(2.9 2.58341e-14 0)
(2.9 -3.52955e-14 0)
(2.9 8.41106e-15 0)
(2.9 1.20154e-13 0)
(2.9 6.97758e-14 0)
(2.9 5.00341e-14 0)
(2.9 -4.6205e-14 0)
(2.9 -4.91667e-14 0)
(2.9 -6.46595e-14 0)
(2.9 -6.44617e-14 0)
(2.9 -4.03178e-14 0)
(2.9 -3.22525e-14 0)
(2.9 -3.42624e-14 0)
(2.9 -6.94817e-15 0)
(2.9 -2.08846e-14 0)
(2.9 -7.76762e-14 0)
(2.9 -1.8017e-14 0)
(2.9 3.41741e-14 0)
(2.9 -4.11616e-14 0)
(2.9 -4.67497e-14 0)
(2.9 2.36667e-14 0)
(2.9 -9.19786e-15 0)
(2.9 5.19294e-15 0)
(2.9 5.20157e-14 0)
(2.9 -2.56319e-14 0)
(2.9 -3.58564e-14 0)
(2.9 -2.14515e-14 0)
(2.9 -7.35314e-14 0)
(2.9 -4.96269e-14 0)
(2.9 -1.03305e-14 0)
(2.9 8.50136e-15 0)
(2.9 3.12855e-14 0)
(2.9 3.54041e-14 0)
(2.9 7.08562e-14 0)
(2.9 1.51928e-14 0)
(2.9 -5.29105e-14 0)
(2.9 2.03818e-14 0)
(2.9 5.33549e-14 0)
(2.9 8.63303e-14 0)
(2.9 3.58011e-14 0)
(2.9 3.65912e-14 0)
(2.9 -9.78927e-15 0)
(2.9 -1.56991e-14 0)
(2.9 3.01755e-14 0)
(2.9 5.71176e-15 0)
(2.9 4.23958e-14 0)
(2.9 -2.86006e-14 0)
(2.9 2.9773e-14 0)
(2.9 1.50819e-14 0)
(2.9 1.13285e-13 0)
(2.9 1.23053e-14 0)
(2.9 -1.55645e-15 0)
(2.9 -1.31343e-14 0)
(2.9 -1.91812e-14 0)
(2.9 4.79959e-14 0)
(2.9 1.48418e-14 0)
(2.9 -6.5729e-14 0)
(2.9 -3.63852e-14 0)
(2.9 -1.36279e-14 0)
(2.9 1.63221e-14 0)
(2.9 -4.28312e-14 0)
(2.9 -5.64687e-14 0)
(2.9 5.861e-15 0)
(2.9 8.17434e-14 0)
(2.9 3.62947e-14 0)
(2.9 4.37996e-14 0)
(2.9 -1.67288e-14 0)
(2.9 -5.76632e-14 0)
(2.9 5.49672e-14 0)
(2.9 5.23674e-14 0)
(2.9 2.24004e-15 0)
(2.9 -5.78428e-15 0)
(2.9 3.67233e-15 0)
(2.9 -2.23378e-15 0)
(2.9 -2.90515e-14 0)
(2.9 -5.6518e-14 0)
(2.9 -8.02037e-14 0)
(2.9 4.87758e-14 0)
(2.9 -1.59416e-15 0)
(2.9 -6.9958e-14 0)
(2.9 -8.37747e-14 0)
(2.9 1.1487e-14 0)
(2.9 -2.57965e-14 0)
(2.9 -5.67125e-15 0)
(2.9 -6.60294e-14 0)
(2.9 -5.78588e-14 0)
(2.9 1.76706e-14 0)
(2.9 -3.99393e-14 0)
(2.9 -2.6714e-14 0)
(2.9 -4.94678e-14 0)
(2.9 -5.57561e-14 0)
(2.9 -1.82394e-14 0)
(2.9 1.64281e-14 0)
(2.9 4.85413e-14 0)
(2.9 -2.1362e-14 0)
(2.9 -1.49636e-14 0)
(2.9 -4.17468e-14 0)
(2.9 -3.95356e-14 0)
(2.9 8.94019e-15 0)
(2.9 4.0198e-14 0)
(2.9 -1.69529e-14 0)
(2.9 4.68207e-14 0)
(2.9 5.69653e-14 0)
(2.9 -3.71457e-14 0)
(2.9 -1.52504e-15 0)
(2.9 -1.73406e-14 0)
(2.9 7.82757e-15 0)
(2.9 4.03367e-14 0)
(2.9 7.32637e-14 0)
(2.9 2.0196e-14 0)
(2.9 1.79948e-15 0)
(2.9 -2.8731e-15 0)
(2.9 -3.69338e-14 0)
(2.9 1.59153e-14 0)
(2.9 1.37831e-14 0)
(2.9 3.87243e-14 0)
(2.9 5.40768e-14 0)
(2.9 -2.38455e-14 0)
(2.9 -8.91571e-16 0)
(2.9 -5.64404e-15 0)
(2.9 -6.61557e-14 0)
(2.9 -2.99813e-14 0)
(2.9 -4.23942e-15 0)
(2.9 2.74193e-14 0)
(2.9 2.74038e-14 0)
(2.9 -5.66279e-15 0)
(2.9 -1.75892e-14 0)
(2.9 6.66393e-16 0)
(2.9 5.57454e-14 0)
(2.9 9.51178e-14 0)
(2.9 3.55114e-14 0)
(2.9 1.25471e-14 0)
(2.9 -1.71918e-14 0)
(2.9 7.15554e-15 0)
(2.9 -1.83415e-14 0)
(2.9 -3.1381e-14 0)
(2.9 -6.06869e-14 0)
(2.9 3.59554e-14 0)
(2.9 6.45401e-14 0)
(2.9 -4.48769e-14 0)