/*--------------------------------*- C++ -*----------------------------------*\
| =========                 |                                                 |
| \\      /  F ield         | OpenFOAM: The Open Source CFD Toolbox           |
|  \\    /   O peration     | Version:  2412                                  |
|   \\  /    A nd           | Website:  www.openfoam.com                      |
|    \\/     M anipulation  |                                                 |
\*---------------------------------------------------------------------------*/
FoamFile
{
    version     2.0;
    format      ascii;
    arch        "LSB;label=32;scalar=64";
    class       volScalarField;
    location    "0.0199049";
    object      rho;
}
// * * * * * * * * * * * * * * * * * * * * * * * * * * * * * * * * * * * * * //

dimensions      [1 -3 0 0 0 0 0];

internalField   nonuniform List<scalar> 
100
(
0.671714
0.671674
0.671964
0.67195
0.671674
0.671315
0.670763
0.669933
0.668686
0.667234
0.665964
0.665242
0.665191
0.666512
0.669982
0.675639
0.682322
0.688515
0.693562
0.694017
0.684308
0.671122
0.658901
0.647434
0.636815
0.628827
0.621799
0.614542
0.605865
0.597813
0.589249
0.581407
0.573139
0.565479
0.557661
0.550035
0.542177
0.534582
0.52724
0.520152
0.512987
0.505534
0.498156
0.491975
0.486539
0.479294
0.472179
0.467923
0.463572
0.459616
0.458655
0.459391
0.460844
0.462775
0.46264
0.456529
0.453828
0.465612
0.475892
0.464169
0.438716
0.441352
0.482282
0.498571
0.458337
0.417561
0.432213
0.50163
0.519239
0.457371
0.405776
0.421553
0.500033
0.526276
0.474324
0.407583
0.407152
0.479426
0.735886
1.01264
1.04673
1.01636
0.976987
1.01549
1.03869
1.01126
1.047
1.1
1.08436
1.00406
0.918867
0.887042
0.899557
0.920515
0.927833
0.908486
0.883054
0.874661
0.876586
0.87595
)
;

boundaryField
{
    sides
    {
        type            calculated;
        value           nonuniform List<scalar> 2(0.87595 0.671714);
    }
    empty
    {
        type            empty;
    }
}


// ************************************************************************* //
