/*--------------------------------*- C++ -*----------------------------------*\
| =========                 |                                                 |
| \\      /  F ield         | OpenFOAM: The Open Source CFD Toolbox           |
|  \\    /   O peration     | Version:  2412                                  |
|   \\  /    A nd           | Website:  www.openfoam.com                      |
|    \\/     M anipulation  |                                                 |
\*---------------------------------------------------------------------------*/
FoamFile
{
    version     2.0;
    format      ascii;
    arch        "LSB;label=32;scalar=64";
    class       volScalarField;
    location    "0.011059";
    object      rhoY_Y_N2;
}
// * * * * * * * * * * * * * * * * * * * * * * * * * * * * * * * * * * * * * //

dimensions      [1 -3 0 0 0 0 0];

internalField   nonuniform List<scalar> 
100
(
1.12308
1.12308
1.12308
1.12308
1.12308
1.12308
1.12308
1.12308
1.12308
1.12308
1.12308
1.12308
1.12279
1.11714
1.09197
1.05194
1.01486
0.985372
0.960819
0.938622
0.917463
0.896841
0.876605
0.856729
0.837189
0.818012
0.799108
0.780654
0.762368
0.744744
0.727313
0.71021
0.694292
0.67675
0.66243
0.646278
0.630626
0.617248
0.602111
0.587829
0.572819
0.56026
0.54677
0.533848
0.519528
0.505397
0.494214
0.48925
0.480435
0.723443
0.505311
0.499369
0.51395
0.521006
0.496942
0.4645
0.468065
0.511112
0.525293
0.48774
0.448716
0.45578
0.504849
0.522598
0.493563
0.451056
0.450408
0.488896
0.518208
0.508414
0.462214
0.434739
0.441914
0.481884
0.537402
0.54045
0.477242
0.357863
0.238233
0.145418
0.083511
0.0449446
0.0224686
0.0105674
0.00478227
0.00205709
0.000842787
0.000328698
0.000120362
4.1792e-05
1.3801e-05
4.3926e-06
1.35155e-06
4.00407e-07
1.13445e-07
3.02376e-08
7.65093e-09
1.88052e-09
4.33212e-10
4.48006e-11
)
;

boundaryField
{
    sides
    {
        type            calculated;
        value           nonuniform List<scalar> 2(0 1.12308);
    }
    empty
    {
        type            empty;
    }
}


// ************************************************************************* //
