/*--------------------------------*- C++ -*----------------------------------*\
| =========                 |                                                 |
| \\      /  F ield         | OpenFOAM: The Open Source CFD Toolbox           |
|  \\    /   O peration     | Version:  2412                                  |
|   \\  /    A nd           | Website:  www.openfoam.com                      |
|    \\/     M anipulation  |                                                 |
\*---------------------------------------------------------------------------*/
FoamFile
{
    version     2.0;
    format      ascii;
    arch        "LSB;label=32;scalar=64";
    class       volVectorField;
    location    "0.011059";
    object      U;
}
// * * * * * * * * * * * * * * * * * * * * * * * * * * * * * * * * * * * * * //

dimensions      [0 1 -1 0 0 0 0];

internalField   nonuniform List<vector> 
100
(
(2.87164e-14 0 0)
(8.01635e-14 0 0)
(3.00177e-14 0 0)
(-5.0628e-14 0 0)
(8.63049e-15 0 0)
(8.37711e-14 0 0)
(1.29493e-13 0 0)
(3.58899e-13 0 0)
(7.9311e-11 0 0)
(3.49767e-08 0 0)
(1.07678e-05 0 0)
(0.00177246 0 0)
(0.110593 0 0)
(1.88041 0 0)
(9.50994 0 0)
(21.9621 0 0)
(33.9868 0 0)
(43.8592 0 0)
(52.262 0 0)
(60.0049 0 0)
(67.525 0 0)
(74.9965 0 0)
(82.4697 0 0)
(89.9586 0 0)
(97.4564 0 0)
(104.99 0 0)
(112.498 0 0)
(120.122 0 0)
(127.539 0 0)
(135.354 0 0)
(142.435 0 0)
(150.572 0 0)
(157.292 0 0)
(165.412 0 0)
(172.538 0 0)
(179.695 0 0)
(187.66 0 0)
(194.358 0 0)
(202.242 0 0)
(209.171 0 0)
(217.213 0 0)
(224.258 0 0)
(232.037 0 0)
(239.329 0 0)
(246.728 0 0)
(254.243 0 0)
(261.966 0 0)
(268.807 0 0)
(273.326 0 0)
(278.283 0 0)
(284.601 0 0)
(287.96 0 0)
(286.688 0 0)
(279.408 0 0)
(277.562 0 0)
(284.965 0 0)
(289.481 0 0)
(286.244 0 0)
(276.49 0 0)
(275.483 0 0)
(285.318 0 0)
(289.523 0 0)
(286.704 0 0)
(277.313 0 0)
(277.496 0 0)
(283.328 0 0)
(289.131 0 0)
(288.357 0 0)
(279.948 0 0)
(277.281 0 0)
(277.985 0 0)
(285.016 0 0)
(287.799 0 0)
(284.283 0 0)
(283.972 0 0)
(278.633 0 0)
(278.291 0 0)
(280.406 0 0)
(281.848 0 0)
(281.479 0 0)
(283.134 0 0)
(284.457 0 0)
(281.814 0 0)
(277.879 0 0)
(277.803 0 0)
(278.179 0 0)
(279.914 0 0)
(282.888 0 0)
(283.374 0 0)
(282.991 0 0)
(280.991 0 0)
(279.849 0 0)
(279.834 0 0)
(281.205 0 0)
(283.43 0 0)
(284.382 0 0)
(282.628 0 0)
(258.591 0 0)
(90.5269 0 0)
(72.8338 0 0)
)
;

boundaryField
{
    sides
    {
        type            fixedValue;
        value           uniform (0 0 0);
    }
    empty
    {
        type            empty;
    }
}


// ************************************************************************* //
