/*--------------------------------*- C++ -*----------------------------------*\
| =========                 |                                                 |
| \\      /  F ield         | OpenFOAM: The Open Source CFD Toolbox           |
|  \\    /   O peration     | Version:  2412                                  |
|   \\  /    A nd           | Website:  www.openfoam.com                      |
|    \\/     M anipulation  |                                                 |
\*---------------------------------------------------------------------------*/
FoamFile
{
    version     2.0;
    format      ascii;
    arch        "LSB;label=32;scalar=64";
    class       volVectorField;
    location    "6.77906e-05";
    object      U;
}
// * * * * * * * * * * * * * * * * * * * * * * * * * * * * * * * * * * * * * //

dimensions      [0 1 -1 0 0 0 0];

internalField   nonuniform List<vector> 
1800
(
(2.9 -5.05097e-14 0)
(2.9 1.24598e-14 0)
(2.9 2.34973e-14 0)
(2.9 -4.65834e-14 0)
(2.9 -3.56401e-14 0)
(2.9 -5.74407e-14 0)
(2.9 -8.84652e-14 0)
(2.9 -6.21486e-14 0)
(2.9 -3.32895e-14 0)
(2.9 -3.51163e-14 0)
(2.9 -7.66205e-15 0)
(2.9 -5.66378e-14 0)
(2.9 -6.18312e-14 0)
(2.9 -5.44357e-14 0)
(2.9 -7.13185e-14 0)
(2.9 -4.82028e-15 0)
(2.9 -2.60904e-14 0)
(2.9 -3.23926e-14 0)
(2.9 -4.72813e-14 0)
(2.9 -2.90085e-14 0)
(2.9 -3.89512e-14 0)
(2.9 -1.36411e-14 0)
(2.9 -2.93393e-14 0)
(2.9 1.51638e-14 0)
(2.9 -1.81811e-14 0)
(2.9 -7.62656e-14 0)
(2.9 -6.53606e-14 0)
(2.9 -2.6068e-14 0)
(2.9 6.27481e-14 0)
(2.9 8.08634e-14 0)
(2.9 -1.21098e-14 0)
(2.9 1.80098e-14 0)
(2.9 -6.19895e-14 0)
(2.9 -7.96323e-14 0)
(2.9 -2.54906e-14 0)
(2.9 -1.52639e-14 0)
(2.9 -2.5868e-15 0)
(2.9 1.82821e-14 0)
(2.9 1.29651e-14 0)
(2.9 -1.40183e-14 0)
(2.9 -3.54983e-15 0)
(2.9 3.08135e-14 0)
(2.9 3.587e-15 0)
(2.9 -2.52871e-14 0)
(2.9 -4.07904e-14 0)
(2.9 -4.64039e-14 0)
(2.9 1.5058e-14 0)
(2.9 6.28218e-14 0)
(2.9 3.60734e-14 0)
(2.9 5.12623e-14 0)
(2.9 7.53224e-15 0)
(2.9 -3.28429e-14 0)
(2.9 2.41078e-14 0)
(2.9 -1.69558e-14 0)
(2.9 3.39848e-15 0)
(2.9 4.23557e-16 0)
(2.9 -6.46569e-14 0)
(2.9 -2.50764e-14 0)
(2.9 -7.41689e-14 0)
(2.9 -1.03427e-13 0)
(2.9 -1.04373e-13 0)
(2.9 4.2389e-14 0)
(2.9 6.16686e-14 0)
(2.9 -3.18412e-14 0)
(2.9 -5.05261e-14 0)
(2.9 -1.47499e-13 0)
(2.9 -1.50535e-13 0)
(2.9 -1.20901e-13 0)
(2.9 -3.51372e-14 0)
(2.9 -3.50685e-14 0)
(2.9 -1.81597e-14 0)
(2.9 -1.26692e-13 0)
(2.9 -5.93488e-14 0)
(2.9 -5.20063e-14 0)
(2.9 -6.45936e-14 0)
(2.9 2.67838e-14 0)
(2.9 -4.37765e-14 0)
(2.9 -6.84758e-14 0)
(2.9 -8.39755e-14 0)
(2.9 -3.34105e-14 0)
(2.9 -6.80896e-14 0)
(2.9 -3.59048e-14 0)
(2.9 -1.15365e-14 0)
(2.9 7.30099e-14 0)
(2.9 -6.75319e-14 0)
(2.9 -1.79438e-13 0)
(2.9 -1.24093e-13 0)
(2.9 -7.78292e-14 0)
(2.9 6.39369e-14 0)
(2.9 1.35234e-13 0)
(2.9 -2.35824e-14 0)
(2.9 2.71085e-14 0)
(2.9 -1.00443e-13 0)
(2.9 -1.76631e-13 0)
(2.9 -6.87226e-14 0)
(2.9 -4.45682e-14 0)
(2.9 -2.02393e-15 0)
(2.9 6.74667e-14 0)
(2.9 -1.65951e-14 0)
(2.9 -6.8894e-14 0)
(2.9 -1.18427e-14 0)
(2.9 3.42514e-14 0)
(2.9 1.59474e-14 0)
(2.9 8.81376e-16 0)
(2.9 -4.50398e-14 0)
(2.9 -1.15789e-13 0)
(2.9 3.23009e-14 0)
(2.9 7.30202e-14 0)
(2.9 9.74106e-14 0)
(2.9 1.11032e-13 0)
(2.9 -1.16433e-14 0)
(2.9 -5.52644e-14 0)
(2.9 6.93474e-15 0)
(2.9 -7.17272e-14 0)
(2.9 -1.95352e-14 0)
(2.9 3.40398e-14 0)
(2.9 -5.91713e-14 0)
(2.9 -5.43203e-14 0)
(2.9 -1.43805e-13 0)
(2.9 -1.50789e-13 0)
(2.9 -3.85322e-14 0)
(2.9 1.23463e-14 0)
(2.9 1.08192e-14 0)
(2.9 -1.51418e-14 0)
(2.9 -2.94077e-14 0)
(2.9 -1.30986e-13 0)
(2.9 -1.31162e-13 0)
(2.9 -7.11304e-14 0)
(2.9 1.86563e-14 0)
(2.9 -2.53485e-14 0)
(2.9 -2.69664e-14 0)
(2.9 -8.13596e-14 0)
(2.9 -3.43366e-14 0)
(2.9 -3.37913e-14 0)
(2.9 -8.9057e-15 0)
(2.9 5.58575e-14 0)
(2.9 5.2016e-15 0)
(2.9 -4.13684e-14 0)
(2.9 -3.80791e-14 0)
(2.9 -3.76346e-14 0)
(2.9 1.41443e-15 0)
(2.9 3.27857e-14 0)
(2.9 6.9367e-14 0)
(2.9 4.40447e-14 0)
(2.9 -9.60821e-14 0)
(2.9 -1.6871e-13 0)
(2.9 -7.31863e-14 0)
(2.9 -2.88028e-14 0)
(2.9 2.38878e-15 0)
(2.9 2.03896e-14 0)
(2.9 -2.35053e-14 0)
(2.9 -3.36075e-14 0)
(2.9 -6.20637e-14 0)
(2.9 -1.08892e-13 0)
(2.9 -5.66397e-14 0)
(2.9 -4.01089e-14 0)
(2.9 1.32761e-14 0)
(2.9 3.4533e-14 0)
(2.9 -5.88615e-14 0)
(2.9 -9.85776e-14 0)
(2.9 -3.5754e-14 0)
(2.9 -4.47494e-14 0)
(2.9 3.72182e-14 0)
(2.9 4.30221e-14 0)
(2.9 -1.11498e-14 0)
(2.9 -5.82682e-14 0)
(2.9 2.84925e-14 0)
(2.9 5.95577e-14 0)
(2.9 4.82943e-14 0)
(2.9 3.49572e-14 0)
(2.9 -2.08157e-14 0)
(2.9 -1.92894e-14 0)
(2.9 -1.8661e-14 0)
(2.9 -3.95988e-14 0)
(2.9 -2.2718e-14 0)
(2.9 -2.82e-14 0)
(2.9 -1.90408e-15 0)
(2.9 -1.03397e-14 0)
(2.9 -7.29877e-14 0)
(2.9 -8.77299e-14 0)
(2.9 -4.31524e-15 0)
(2.9 -6.77144e-14 0)
(2.9 -3.05058e-15 0)
(2.9 -5.76909e-14 0)
(2.9 -4.06001e-14 0)
(2.9 -3.87581e-14 0)
(2.9 -8.58486e-14 0)
(2.9 -5.35558e-14 0)
(2.9 -1.07304e-14 0)
(2.9 -1.06034e-13 0)
(2.9 -7.78729e-14 0)
(2.9 -8.00364e-14 0)
(2.9 -1.22573e-14 0)
(2.9 -6.50393e-14 0)
(2.9 -2.48126e-14 0)
(2.9 1.16102e-14 0)
(2.9 -1.55138e-14 0)
(2.9 1.67388e-14 0)
(2.9 6.4522e-14 0)
(2.9 1.35086e-14 0)
(2.9 4.87548e-14 0)
(2.9 4.76843e-14 0)
(2.9 1.59762e-14 0)
(2.9 -1.72267e-14 0)
(2.9 -5.13756e-14 0)
(2.9 -7.93226e-14 0)
(2.9 5.21274e-16 0)
(2.9 -1.89579e-14 0)
(2.9 -7.36249e-15 0)
(2.9 -8.64297e-15 0)
(2.9 1.87496e-15 0)
(2.9 1.99805e-14 0)
(2.9 -2.61134e-14 0)
(2.9 2.15308e-14 0)
(2.9 -3.73955e-14 0)
(2.9 -6.34063e-15 0)
(2.9 4.19782e-14 0)
(2.9 3.29683e-14 0)
(2.9 -1.99351e-14 0)
(2.9 -8.48713e-14 0)
(2.9 -2.57567e-14 0)
(2.9 -5.19779e-14 0)
(2.9 -5.25615e-14 0)
(2.9 -2.64126e-14 0)
(2.9 -1.18851e-14 0)
(2.9 -6.87435e-14 0)
(2.9 -2.88226e-14 0)
(2.9 3.75691e-14 0)
(2.9 -5.28535e-14 0)
(2.9 -8.16563e-14 0)
(2.9 -6.27199e-14 0)
(2.9 -5.23136e-16 0)
(2.9 -1.45574e-14 0)
(2.9 1.31801e-14 0)
(2.9 -2.66572e-15 0)
(2.9 -1.03132e-14 0)
(2.9 1.39604e-14 0)
(2.9 -3.23959e-14 0)
(2.9 -4.29455e-15 0)
(2.9 1.86993e-14 0)
(2.9 -4.36308e-15 0)
(2.9 -1.17195e-13 0)
(2.9 -1.59653e-14 0)
(2.9 -6.3764e-14 0)
(2.9 -9.59599e-15 0)
(2.9 -9.01067e-15 0)
(2.9 -4.68894e-14 0)
(2.9 -5.13681e-14 0)
(2.9 -2.73544e-14 0)
(2.9 -8.14175e-14 0)
(2.9 -9.26234e-14 0)
(2.9 -3.88154e-14 0)
(2.9 1.30843e-14 0)
(2.9 8.62197e-15 0)
(2.9 -2.56929e-14 0)
(2.9 -5.2902e-14 0)
(2.9 -4.80433e-15 0)
(2.9 2.87747e-14 0)
(2.9 1.01752e-13 0)
(2.9 5.99944e-14 0)
(2.9 7.18235e-14 0)
(2.9 2.36689e-14 0)
(2.9 -7.93822e-14 0)
(2.9 -7.7488e-14 0)
(2.9 8.73698e-15 0)
(2.9 9.08343e-15 0)
(2.9 5.50488e-14 0)
(2.9 -2.95847e-14 0)
(2.9 3.06903e-16 0)
(2.9 8.37125e-15 0)
(2.9 2.22915e-14 0)
(2.9 7.40063e-14 0)
(2.9 1.13115e-14 0)
(2.9 7.24641e-14 0)
(2.9 -2.79842e-14 0)
(2.9 -1.04e-14 0)
(2.9 2.5078e-14 0)
(2.9 1.20745e-14 0)
(2.9 -6.85972e-15 0)
(2.9 -5.827e-14 0)
(2.9 -5.37296e-14 0)
(2.9 -5.91578e-14 0)
(2.9 -1.21261e-13 0)
(2.9 -1.0837e-13 0)
(2.9 -4.60689e-14 0)
(2.9 -5.81472e-14 0)
(2.9 -3.21199e-14 0)
(2.9 -4.28636e-15 0)
(2.9 -9.94093e-14 0)
(2.9 -6.91843e-14 0)
(2.9 -1.22697e-14 0)
(2.9 3.4774e-14 0)
(2.9 -4.9028e-14 0)
(2.9 -2.18018e-14 0)
(2.9 1.5282e-14 0)
(2.9 2.76304e-14 0)
(2.9 1.98439e-14 0)
(2.9 5.71116e-16 0)
(2.9 1.84561e-14 0)
(2.9 9.41485e-14 0)
(2.9 -5.18762e-14 0)
(2.9 -9.63014e-14 0)
(2.9 -8.9134e-14 0)
(2.9 -4.23967e-14 0)
(2.9 6.55369e-14 0)
(2.9 1.46998e-14 0)
(2.9 3.37437e-14 0)
(2.9 3.78351e-14 0)
(2.9 -5.46853e-14 0)
(2.9 -9.20793e-14 0)
(2.9 -1.07202e-13 0)
(2.9 -2.43917e-14 0)
(2.9 -2.85926e-14 0)
(2.9 2.07803e-14 0)
(2.9 2.25193e-14 0)
(2.9 -5.74414e-14 0)
(2.9 -2.47525e-14 0)
(2.9 -1.35044e-14 0)
(2.9 2.44214e-14 0)
(2.9 8.69459e-16 0)
(2.9 -2.76814e-14 0)
(2.9 -4.14752e-14 0)
(2.9 -5.6856e-14 0)
(2.9 -5.82997e-14 0)
(2.9 -4.07539e-14 0)
(2.9 1.62816e-14 0)
(2.9 5.92678e-14 0)
(2.9 -9.88944e-15 0)
(2.9 1.62985e-15 0)
(2.9 2.5499e-14 0)
(2.9 -3.40699e-14 0)
(2.9 -3.19058e-15 0)
(2.9 5.88791e-17 0)
(2.9 1.303e-14 0)
(2.9 -5.61312e-14 0)
(2.9 -7.26245e-14 0)
(2.9 -5.74263e-14 0)
(2.9 -5.34735e-14 0)
(2.9 -7.06906e-14 0)
(2.9 -4.84329e-14 0)
(2.9 -1.08444e-13 0)
(2.9 -3.62748e-14 0)
(2.9 -7.90676e-14 0)
(2.9 8.83337e-16 0)
(2.9 -2.43985e-14 0)
(2.9 2.53101e-14 0)
(2.9 -3.47808e-15 0)
(2.9 -8.4809e-14 0)
(2.9 -9.27779e-14 0)
(2.9 -2.59922e-14 0)
(2.9 3.17625e-14 0)
(2.9 1.30033e-14 0)
(2.9 -5.23821e-14 0)
(2.9 -6.25884e-14 0)
(2.9 -2.46903e-14 0)
(2.9 -1.0869e-14 0)
(2.9 8.59427e-15 0)
(2.9 1.6484e-14 0)
(2.9 -5.47313e-15 0)
(2.9 1.48181e-14 0)
(2.9 -2.47623e-14 0)
(2.9 -2.1874e-14 0)
(2.9 -1.36608e-13 0)
(2.9 -1.79155e-14 0)
(2.9 7.86116e-14 0)
(2.9 3.57961e-14 0)
(2.9 9.36463e-14 0)
(2.9 6.33219e-14 0)
(2.9 -2.24419e-14 0)
(2.9 -5.89703e-14 0)
(2.9 -6.29409e-14 0)
(2.9 -6.63671e-14 0)
(2.9 -9.81121e-14 0)
(2.9 -1.66749e-14 0)
(2.9 4.18917e-14 0)
(2.9 -3.55411e-14 0)
(2.9 -2.46679e-14 0)
(2.9 6.28616e-15 0)
(2.9 -4.32009e-14 0)
(2.9 -5.38379e-14 0)
(2.9 -1.16904e-13 0)
(2.9 -8.91645e-14 0)
(2.9 1.48434e-14 0)
(2.9 -5.40386e-14 0)
(2.9 -4.68863e-14 0)
(2.9 1.88856e-14 0)
(2.9 5.70978e-14 0)
(2.9 1.22098e-14 0)
(2.9 1.69662e-15 0)
(2.9 1.83397e-14 0)
(2.9 -6.79312e-14 0)
(2.9 7.88854e-15 0)
(2.9 1.24054e-14 0)
(2.9 -2.0961e-14 0)
(2.9 -9.71372e-14 0)
(2.9 -1.6392e-13 0)
(2.9 -1.23397e-13 0)
(2.9 -7.18455e-14 0)
(2.9 -1.53416e-13 0)
(2.9 -7.38605e-14 0)
(2.9 -9.22406e-14 0)
(2.9 1.40102e-14 0)
(2.9 -1.31176e-16 0)
(2.9 9.86744e-14 0)
(2.9 3.36078e-14 0)
(2.9 -5.54738e-16 0)
(2.9 -7.12896e-14 0)
(2.9 -5.70084e-14 0)
(2.9 -1.07616e-13 0)
(2.9 -2.16693e-14 0)
(2.9 -6.40786e-15 0)
(2.9 -6.08301e-14 0)
(2.9 -3.32728e-14 0)
(2.9 -8.97726e-14 0)
(2.9 -9.59526e-14 0)
(2.9 -6.38355e-14 0)
(2.9 -3.823e-15 0)
(2.9 -1.3274e-14 0)
(2.9 -2.52769e-14 0)
(2.9 -4.50086e-14 0)
(2.9 -7.23008e-15 0)
(2.9 4.25929e-14 0)
(2.9 -5.42572e-14 0)
(2.9 -2.73056e-14 0)
(2.9 1.43732e-14 0)
(2.9 9.32184e-14 0)
(2.9 1.05842e-13 0)
(2.9 5.64733e-15 0)
(2.9 5.84798e-15 0)
(2.9 -1.42431e-14 0)
(2.9 -2.59261e-14 0)
(2.9 -8.25001e-14 0)
(2.9 -1.48556e-13 0)
(2.9 -9.59924e-14 0)
(2.9 -2.61733e-14 0)
(2.9 1.34942e-14 0)
(2.9 2.38807e-14 0)
(2.9 9.19716e-15 0)
(2.9 -7.10926e-14 0)
(2.9 -1.09007e-13 0)
(2.9 -6.30268e-14 0)
(2.9 -1.69276e-14 0)
(2.9 4.58219e-14 0)
(2.9 -6.25824e-15 0)
(2.9 1.69448e-14 0)
(2.9 4.02478e-14 0)
(2.9 6.6294e-14 0)
(2.9 3.14137e-14 0)
(2.9 6.49875e-14 0)
(2.9 6.8514e-15 0)
(2.9 -1.24193e-14 0)
(2.9 4.58844e-14 0)
(2.9 5.06892e-14 0)
(2.9 -7.81031e-15 0)
(2.9 -6.22661e-14 0)
(2.9 -4.82517e-14 0)
(2.9 -4.11556e-14 0)
(2.9 2.50611e-14 0)
(2.9 -3.86987e-14 0)
(2.9 -3.91797e-14 0)
(2.9 -1.79222e-14 0)
(2.9 3.98216e-14 0)
(2.9 5.08963e-14 0)
(2.9 7.55735e-14 0)
(2.9 5.97934e-14 0)
(2.9 -1.32651e-14 0)
(2.9 -7.13238e-14 0)
(2.9 -2.40921e-14 0)
(2.9 -3.13859e-14 0)
(2.9 -5.96213e-14 0)
(2.9 7.76313e-16 0)
(2.9 -3.81577e-14 0)
(2.9 -5.5287e-14 0)
(2.9 -7.3211e-14 0)
(2.9 -6.59571e-14 0)
(2.9 -4.8201e-14 0)
(2.9 -4.56435e-14 0)
(2.9 -1.19812e-14 0)
(2.9 -5.53531e-14 0)
(2.9 -4.79446e-14 0)
(2.9 -5.10733e-15 0)
(2.9 7.0587e-14 0)
(2.9 -1.06563e-14 0)
(2.9 -6.28928e-15 0)
(2.9 -4.60586e-14 0)
(2.9 2.82942e-14 0)
(2.9 1.94689e-14 0)
(2.9 -4.84245e-14 0)
(2.9 2.36384e-14 0)
(2.9 1.34929e-14 0)
(2.9 -1.5515e-14 0)
(2.9 -8.50955e-14 0)
(2.9 -1.00031e-13 0)
(2.9 -1.22801e-13 0)
(2.9 -7.60203e-14 0)
(2.9 1.1454e-14 0)
(2.9 2.89828e-14 0)
(2.9 3.45874e-14 0)
(2.9 -2.79962e-14 0)
(2.9 -1.15577e-13 0)
(2.9 3.96831e-15 0)
(2.9 7.67781e-14 0)
(2.9 3.17094e-15 0)
(2.9 8.16875e-15 0)
(2.9 5.22671e-14 0)
(2.9 2.31987e-14 0)
(2.9 6.42183e-14 0)
(2.9 6.35901e-14 0)
(2.9 8.46379e-14 0)
(2.9 2.63168e-14 0)
(2.9 3.96393e-14 0)
(2.9 -5.10563e-15 0)
(2.9 3.20499e-14 0)
(2.9 -1.62114e-14 0)
(2.9 1.2277e-16 0)
(2.9 5.22702e-14 0)
(2.9 5.28166e-14 0)
(2.9 2.08967e-14 0)
(2.9 7.28942e-14 0)
(2.9 6.32689e-14 0)
(2.9 2.7994e-14 0)
(2.9 6.47749e-14 0)
(2.9 8.94649e-14 0)
(2.9 5.20376e-14 0)
(2.9 3.50799e-14 0)
(2.9 3.22162e-14 0)
(2.9 -4.93914e-14 0)
(2.9 -6.90793e-15 0)
(2.9 7.13538e-14 0)
(2.9 1.66914e-14 0)
(2.9 2.69879e-14 0)
(2.9 4.61351e-14 0)
(2.9 -6.46684e-14 0)
(2.9 -7.23638e-14 0)
(2.9 2.7228e-14 0)
(2.9 -2.81695e-14 0)
(2.9 -3.86053e-14 0)
(2.9 5.02372e-15 0)
(2.9 -3.65811e-14 0)
(2.9 -4.26029e-14 0)
(2.9 -2.61497e-14 0)
(2.9 6.1686e-14 0)
(2.9 8.1418e-14 0)
(2.9 5.46601e-14 0)
(2.9 7.55665e-15 0)
(2.9 -2.60784e-14 0)
(2.9 -6.24783e-14 0)
(2.9 8.97541e-15 0)
(2.9 6.19063e-14 0)
(2.9 3.43717e-14 0)
(2.9 7.23421e-15 0)
(2.9 -5.05986e-14 0)
(2.9 -4.75525e-14 0)
(2.9 -4.55208e-14 0)
(2.9 -4.79054e-14 0)
(2.9 3.92108e-14 0)
(2.9 3.12582e-14 0)
(2.9 8.84561e-14 0)
(2.9 2.78641e-14 0)
(2.9 -3.30889e-14 0)
(2.9 -1.72555e-14 0)
(2.9 3.05768e-14 0)
(2.9 -2.46598e-14 0)
(2.9 -1.15083e-14 0)
(2.9 -2.65374e-15 0)
(2.9 1.70203e-14 0)
(2.9 6.85648e-14 0)
(2.9 7.54366e-14 0)
(2.9 7.74149e-14 0)
(2.9 2.45147e-14 0)
(2.9 4.51354e-15 0)
(2.9 -5.67468e-14 0)
(2.9 4.83117e-14 0)
(2.9 -1.54586e-14 0)
(2.9 2.65693e-14 0)
(2.9 4.77073e-14 0)
(2.9 5.06303e-14 0)
(2.9 1.58469e-14 0)
(2.9 3.65535e-14 0)
(2.9 8.92168e-14 0)
(2.9 7.62217e-14 0)
(2.9 4.50046e-14 0)
(2.9 7.70834e-14 0)
(2.9 2.41659e-14 0)
(2.9 1.44776e-14 0)
(2.9 1.03455e-13 0)
(2.9 -1.13297e-14 0)
(2.9 -3.12007e-14 0)
(2.9 5.33303e-14 0)
(2.9 7.54867e-14 0)
(2.9 2.3406e-15 0)
(2.9 6.82708e-14 0)
(2.9 5.55839e-15 0)
(2.9 -3.52227e-14 0)
(2.9 2.18253e-14 0)
(2.9 -1.86126e-14 0)
(2.9 -5.81587e-14 0)
(2.9 -4.90703e-14 0)
(2.9 -6.24904e-15 0)
(2.9 9.88315e-15 0)
(2.9 -5.52166e-14 0)
(2.9 -1.03228e-14 0)
(2.9 9.16828e-14 0)
(2.9 3.58466e-14 0)
(2.9 -5.10774e-14 0)
(2.9 -5.33878e-14 0)
(2.9 2.97096e-15 0)
(2.9 7.6318e-14 0)
(2.9 7.19937e-14 0)
(2.9 -5.23653e-15 0)
(2.9 2.32821e-14 0)
(2.9 1.33147e-14 0)
(2.9 -6.09039e-15 0)
(2.9 4.17503e-14 0)
(2.9 2.32267e-14 0)
(2.9 5.87214e-14 0)
(2.9 -1.95066e-15 0)
(2.9 3.70798e-14 0)
(2.9 9.84246e-14 0)
(2.9 4.71576e-14 0)
(2.9 -6.93455e-14 0)
(2.9 -4.1216e-15 0)
(2.9 1.51842e-14 0)
(2.9 1.6365e-14 0)
(2.9 -5.97226e-14 0)
(2.9 -2.60698e-14 0)
(2.9 -6.43021e-15 0)
(2.9 5.13639e-14 0)
(2.9 -1.39125e-14 0)
(2.9 -3.09444e-14 0)
(2.9 -1.71775e-14 0)
(2.9 -1.08891e-13 0)
(2.9 -2.94014e-14 0)
(2.9 -5.04698e-14 0)
(2.9 -1.49676e-14 0)
(2.9 6.19796e-14 0)
(2.9 3.60852e-14 0)
(2.9 -2.70736e-15 0)
(2.9 2.27958e-14 0)
(2.9 5.06097e-14 0)
(2.9 9.72951e-14 0)
(2.9 1.47062e-14 0)
(2.9 3.22822e-14 0)
(2.9 -2.52192e-15 0)
(2.9 -1.9857e-14 0)
(2.9 3.85975e-14 0)
(2.9 -2.68294e-14 0)
(2.9 -7.6555e-15 0)
(2.9 1.76949e-14 0)
(2.9 7.79356e-14 0)
(2.9 -2.14787e-14 0)
(2.9 4.20637e-14 0)
(2.9 1.17853e-14 0)
(2.9 -2.07344e-16 0)
(2.9 -8.49789e-15 0)
(2.9 -3.48051e-15 0)
(2.9 -4.93709e-14 0)
(2.9 -9.04554e-14 0)
(2.9 5.17678e-14 0)
(2.9 7.61237e-14 0)
(2.9 3.14077e-15 0)
(2.9 3.4327e-15 0)
(2.9 1.12166e-14 0)
(2.9 -3.0994e-14 0)
(2.9 -5.63332e-14 0)
(2.9 -1.02935e-13 0)
(2.9 2.35979e-14 0)
(2.9 7.95565e-14 0)
(2.9 6.7103e-14 0)
(2.9 -4.12084e-15 0)
(2.9 6.27952e-14 0)
(2.9 5.469e-14 0)
(2.9 4.3024e-14 0)
(2.9 2.35192e-14 0)
(2.9 -1.1384e-15 0)
(2.9 4.67274e-14 0)
(2.9 -4.55643e-14 0)
(2.9 -1.875e-14 0)
(2.9 2.50967e-14 0)
(2.9 4.16469e-14 0)
(2.9 -2.10402e-14 0)
(2.9 -4.90712e-15 0)
(2.9 -2.54014e-14 0)
(2.9 1.01026e-14 0)
(2.9 -6.16013e-14 0)
(2.9 -1.28845e-14 0)
(2.9 -7.84192e-14 0)
(2.9 -1.07232e-14 0)
(2.9 -6.06576e-14 0)
(2.9 -1.52202e-14 0)
(2.9 7.73833e-15 0)
(2.9 -7.89546e-14 0)
(2.9 -9.20932e-14 0)
(2.9 -8.54818e-15 0)
(2.9 2.09593e-14 0)
(2.9 4.211e-14 0)
(2.9 -5.97515e-15 0)
(2.9 -2.73325e-14 0)
(2.9 1.07419e-14 0)
(2.9 -6.84741e-15 0)
(2.9 5.70275e-14 0)
(2.9 -1.47587e-14 0)
(2.9 2.42413e-14 0)
(2.9 -3.15148e-15 0)
(2.9 -4.29352e-15 0)
(2.9 -5.87557e-14 0)
(2.9 7.38077e-15 0)
(2.9 -9.37952e-15 0)
(2.9 -3.76172e-14 0)
(2.9 1.14245e-14 0)
(2.9 -6.4754e-14 0)
(2.9 -3.9374e-14 0)
(2.9 2.24201e-14 0)
(2.9 4.57431e-14 0)
(2.9 2.10436e-16 0)
(2.9 -9.99443e-16 0)
(2.9 -1.61619e-15 0)
(2.9 -4.81732e-14 0)
(2.9 4.55413e-14 0)
(2.9 9.10486e-14 0)
(2.9 5.96671e-14 0)
(2.9 1.4306e-14 0)
(2.9 -5.45375e-14 0)
(2.9 2.49138e-14 0)
(2.9 -1.24659e-14 0)
(2.9 -8.35979e-15 0)
(2.9 2.98133e-14 0)
(2.9 1.31946e-14 0)
(2.9 -1.04463e-14 0)
(2.9 -2.15678e-14 0)
(2.9 4.96458e-14 0)
(2.9 3.74398e-14 0)
(2.9 3.41795e-14 0)
(2.9 1.10731e-14 0)
(2.9 -1.34446e-14 0)
(2.9 -3.1236e-14 0)
(2.9 -1.47621e-14 0)
(2.9 -6.18566e-16 0)
(2.9 -4.17826e-14 0)
(2.9 2.21011e-14 0)
(2.9 8.53528e-15 0)
(2.9 -2.30891e-14 0)
(2.9 -6.20048e-15 0)
(2.9 -3.86334e-14 0)
(2.9 -4.46992e-14 0)
(2.9 1.44101e-14 0)
(2.9 -4.20024e-14 0)
(2.9 -6.55379e-14 0)
(2.9 -5.09469e-14 0)
(2.9 3.79323e-14 0)
(2.9 -4.26578e-15 0)
(2.9 -4.82829e-15 0)
(2.9 -2.99788e-14 0)
(2.9 7.31747e-15 0)
(2.9 6.16613e-14 0)
(2.9 5.28182e-14 0)
(2.9 4.91993e-15 0)
(2.9 3.99964e-14 0)
(2.9 1.90633e-14 0)
(2.9 1.04796e-14 0)
(2.9 3.95725e-14 0)
(2.9 -1.52458e-14 0)
(2.9 6.85779e-15 0)
(2.9 -1.23218e-15 0)
(2.9 -8.36915e-16 0)
(2.9 1.98424e-14 0)
(2.9 3.79146e-14 0)
(2.9 -5.18411e-14 0)
(2.9 -6.82427e-14 0)
(2.9 -1.77462e-14 0)
(2.9 -3.56007e-14 0)
(2.9 -3.60453e-14 0)
(2.9 6.08159e-14 0)
(2.9 8.38884e-14 0)
(2.9 7.29231e-14 0)
(2.9 2.07244e-14 0)
(2.9 -4.34385e-14 0)
(2.9 1.19888e-14 0)
(2.9 4.0533e-14 0)
(2.9 7.91571e-14 0)
(2.9 4.55757e-15 0)
(2.9 -2.23518e-14 0)
(2.9 -2.49914e-14 0)
(2.9 3.96886e-14 0)
(2.9 4.68224e-15 0)
(2.9 -1.26508e-14 0)
(2.9 2.83588e-14 0)
(2.9 -3.94572e-14 0)
(2.9 -1.26476e-14 0)
(2.9 5.0271e-14 0)
(2.9 8.77985e-14 0)
(2.9 2.72722e-14 0)
(2.9 1.04976e-13 0)
(2.9 3.20961e-14 0)
(2.9 -2.35345e-14 0)
(2.9 -9.72818e-14 0)
(2.9 1.29561e-14 0)
(2.9 3.7862e-14 0)
(2.9 -9.36058e-15 0)
(2.9 4.71471e-14 0)
(2.9 8.36967e-14 0)
(2.9 2.95553e-14 0)
(2.9 1.94304e-14 0)
(2.9 -4.82296e-14 0)
(2.9 2.66349e-14 0)
(2.9 -1.63477e-14 0)
(2.9 -9.74046e-14 0)
(2.9 -1.78096e-13 0)
(2.9 -3.29295e-14 0)
(2.9 7.19751e-14 0)
(2.9 5.2475e-14 0)
(2.9 2.32146e-14 0)
(2.9 9.6106e-15 0)
(2.9 8.95294e-14 0)
(2.9 1.73465e-14 0)
(2.9 6.22609e-14 0)
(2.9 3.76379e-14 0)
(2.9 8.00965e-15 0)
(2.9 5.51165e-14 0)
(2.9 7.27661e-15 0)
(2.9 6.15332e-14 0)
(2.9 2.15191e-14 0)
(2.9 -8.39542e-15 0)
(2.9 -5.42435e-14 0)
(2.9 1.19962e-14 0)
(2.9 8.7357e-14 0)
(2.9 8.98714e-14 0)
(2.9 -9.24939e-15 0)
(2.9 -1.65467e-14 0)
(2.9 -2.45205e-14 0)
(2.9 2.74159e-15 0)
(2.9 -7.09773e-15 0)
(2.9 2.60745e-14 0)
(2.9 9.51061e-14 0)
(2.9 1.14897e-13 0)
(2.9 -1.69924e-15 0)
(2.9 -1.02886e-14 0)
(2.9 9.94755e-14 0)
(2.9 8.5279e-14 0)
(2.9 1.00714e-13 0)
(2.9 -9.55796e-14 0)
(2.9 -1.15907e-13 0)
(2.9 -2.70719e-14 0)
(2.9 3.63428e-14 0)
(2.9 1.11636e-14 0)
(2.9 -1.64119e-14 0)
(2.9 -3.5599e-14 0)
(2.9 -1.26974e-14 0)
(2.9 1.30239e-15 0)
(2.9 8.40156e-14 0)
(2.9 4.14853e-14 0)
(2.9 3.74824e-14 0)
(2.9 5.35838e-14 0)
(2.9 2.86664e-14 0)
(2.9 -3.34316e-14 0)
(2.9 -1.85124e-16 0)
(2.9 6.69153e-14 0)
(2.9 6.31483e-14 0)
(2.9 1.80414e-14 0)
(2.9 5.29108e-14 0)
(2.9 8.1417e-14 0)
(2.9 7.2951e-14 0)
(2.9 1.85206e-14 0)
(2.9 2.78858e-14 0)
(2.9 4.34003e-14 0)
(2.9 -3.26237e-14 0)
(2.9 -6.53907e-14 0)
(2.9 -1.14847e-13 0)
(2.9 -3.90922e-14 0)
(2.9 -5.01254e-15 0)
(2.9 4.90444e-14 0)
(2.9 -2.20107e-14 0)
(2.9 1.30016e-14 0)
(2.9 7.17175e-14 0)
(2.9 4.55811e-14 0)
(2.9 5.22969e-14 0)
(2.9 7.15682e-15 0)
(2.9 -7.23456e-14 0)
(2.9 3.94783e-15 0)
(2.9 8.01661e-15 0)
(2.9 7.50034e-14 0)
(2.9 3.91973e-14 0)
(2.9 -1.19635e-14 0)
(2.9 -6.16849e-14 0)
(2.9 -3.57322e-14 0)
(2.9 -3.71374e-14 0)
(2.9 4.20329e-14 0)
(2.9 -1.59483e-14 0)
(2.9 -4.93121e-15 0)
(2.9 -6.48976e-14 0)
(2.9 -3.32939e-14 0)
(2.9 -8.84911e-15 0)
(2.9 4.81046e-15 0)
(2.9 4.28124e-14 0)
(2.9 2.58242e-16 0)
(2.9 6.79593e-15 0)
(2.9 6.53708e-14 0)
(2.9 8.57021e-14 0)
(2.9 1.36351e-14 0)
(2.9 8.727e-14 0)
(2.9 -7.68341e-14 0)
(2.9 -9.5689e-14 0)
(2.9 -2.68634e-16 0)
(2.9 3.3721e-14 0)
(2.9 4.78115e-14 0)
(2.9 3.40379e-14 0)
(2.9 -3.73974e-14 0)
(2.9 2.65955e-15 0)
(2.9 7.03473e-15 0)
(2.9 4.81379e-14 0)
(2.9 -8.55763e-15 0)
(2.9 2.69812e-14 0)
(2.9 1.24623e-14 0)
(2.9 7.99888e-14 0)
(2.9 6.73869e-14 0)
(2.9 2.4073e-14 0)
(2.9 1.61579e-14 0)
(2.9 4.05654e-14 0)
(2.9 3.55879e-14 0)
(2.9 9.04974e-14 0)
(2.9 7.87196e-14 0)
(2.9 3.57004e-14 0)
(2.9 1.50491e-14 0)
(2.9 5.02387e-14 0)
(2.9 2.91434e-14 0)
(2.9 1.99373e-14 0)
(2.9 3.82762e-14 0)
(2.9 7.03782e-14 0)
(2.9 -6.18132e-15 0)
(2.9 -4.31002e-16 0)
(2.9 7.64842e-15 0)
(2.9 5.88182e-14 0)
(2.9 1.83772e-15 0)
(2.9 3.08042e-14 0)
(2.9 8.3378e-14 0)
(2.9 -2.38354e-14 0)
(2.9 -3.65677e-14 0)
(2.9 -2.92091e-14 0)
(2.9 -1.27352e-14 0)
(2.9 -2.0023e-14 0)
(2.9 -2.75022e-14 0)
(2.9 2.51432e-14 0)
(2.9 -4.26612e-14 0)
(2.9 -3.29447e-15 0)
(2.9 -6.10704e-14 0)
(2.9 -1.20849e-13 0)
(2.9 -5.41876e-14 0)
(2.9 -7.99162e-14 0)
(2.9 2.26029e-14 0)
(2.9 -4.71923e-14 0)
(2.9 -3.02209e-14 0)
(2.9 -4.5182e-14 0)
(2.9 1.23116e-14 0)
(2.9 1.0276e-14 0)
(2.9 -1.10905e-13 0)
(2.9 -1.14642e-14 0)
(2.9 9.66436e-14 0)
(2.9 5.38162e-14 0)
(2.9 -4.99392e-14 0)
(2.9 -7.58696e-14 0)
(2.9 6.85289e-15 0)
(2.9 -5.81686e-14 0)
(2.9 4.00228e-14 0)
(2.9 -4.58359e-15 0)
(2.9 3.96432e-14 0)
(2.9 3.97545e-14 0)
(2.9 1.45477e-14 0)
(2.9 -4.99833e-15 0)
(2.9 9.94081e-15 0)
(2.9 -4.83566e-15 0)
(2.9 2.68103e-14 0)
(2.9 2.59949e-14 0)
(2.9 -6.38216e-15 0)
(2.9 1.25434e-13 0)
(2.9 1.35606e-13 0)
(2.9 3.86894e-14 0)
(2.9 -8.59238e-14 0)
(2.9 1.24513e-14 0)
(2.9 1.20193e-13 0)
(2.9 6.40236e-14 0)
(2.9 1.19088e-14 0)
(2.9 -2.29094e-14 0)
(2.9 4.18221e-14 0)
(2.9 3.63451e-14 0)
(2.9 -1.4757e-14 0)
(2.9 2.37991e-14 0)
(2.9 7.99967e-14 0)
(2.9 1.778e-13 0)
(2.9 6.00892e-14 0)
(2.9 2.77934e-14 0)
(2.9 7.25856e-15 0)
(2.9 1.29095e-13 0)
(2.9 2.70417e-14 0)
(2.9 -2.98905e-14 0)
(2.9 4.49809e-14 0)
(2.9 -7.92549e-14 0)
(2.9 -4.61222e-14 0)
(2.9 7.66947e-14 0)
(2.9 -5.41861e-14 0)
(2.9 -2.88442e-14 0)
(2.9 -1.45656e-13 0)
(2.9 -4.90641e-14 0)
(2.9 -7.43237e-14 0)
(2.9 6.22158e-14 0)
(2.9 3.01705e-14 0)
(2.9 -4.31805e-14 0)
(2.9 -6.98968e-14 0)
(2.9 -5.74257e-14 0)
(2.9 1.6172e-14 0)
(2.9 3.80058e-15 0)
(2.9 5.33662e-14 0)
(2.9 -3.60623e-14 0)
(2.9 2.76388e-14 0)
(2.9 -4.83345e-14 0)
(2.9 -9.02455e-14 0)
(2.9 7.57382e-15 0)
(2.9 2.68743e-14 0)
(2.9 6.76326e-14 0)
(2.9 -2.93731e-14 0)
(2.9 -1.63426e-13 0)
(2.9 -4.68386e-14 0)
(2.9 -2.7652e-14 0)
(2.9 8.62654e-16 0)
(2.9 -7.49434e-14 0)
(2.9 -1.0691e-14 0)
(2.9 1.93646e-14 0)
(2.9 3.58128e-14 0)
(2.9 4.83376e-14 0)
(2.9 1.15051e-13 0)
(2.9 2.70287e-14 0)
(2.9 8.42683e-15 0)
(2.9 4.32743e-15 0)
(2.9 3.61348e-14 0)
(2.9 3.50429e-14 0)
(2.9 6.19383e-14 0)
(2.9 1.78579e-14 0)
(2.9 -5.17543e-14 0)
(2.9 4.76201e-15 0)
(2.9 6.49058e-14 0)
(2.9 -3.67512e-15 0)
(2.9 3.41112e-16 0)
(2.9 -3.56027e-14 0)
(2.9 1.2814e-14 0)
(2.9 8.77145e-14 0)
(2.9 3.90563e-14 0)
(2.9 2.41025e-14 0)
(2.9 8.20297e-14 0)
(2.9 8.17196e-14 0)
(2.9 3.90077e-14 0)
(2.9 3.8406e-14 0)
(2.9 5.15133e-14 0)
(2.9 8.6166e-14 0)
(2.9 1.97367e-14 0)
(2.9 -1.43394e-14 0)
(2.9 5.72632e-14 0)
(2.9 -1.18813e-14 0)
(2.9 -2.25376e-14 0)
(2.9 4.97297e-14 0)
(2.9 -2.00167e-14 0)
(2.9 -2.08352e-14 0)
(2.9 -5.18807e-14 0)
(2.9 -5.51731e-15 0)
(2.9 2.27124e-15 0)
(2.9 4.03356e-14 0)
(2.9 2.64104e-14 0)
(2.9 3.19599e-14 0)
(2.9 -4.06612e-15 0)
(2.9 -1.01977e-14 0)
(2.9 3.4669e-14 0)
(2.9 3.85967e-14 0)
(2.9 1.33484e-14 0)
(2.9 1.33048e-14 0)
(2.9 2.38503e-14 0)
(2.9 -3.20223e-14 0)
(2.9 4.98116e-15 0)
(2.9 3.37815e-14 0)
(2.9 4.13341e-15 0)
(2.9 3.12992e-14 0)
(2.9 -5.80466e-14 0)
(2.9 -1.17444e-13 0)
(2.9 -6.0157e-14 0)
(2.9 -1.99606e-14 0)
(2.9 -4.59627e-14 0)
(2.9 -1.08045e-13 0)
(2.9 -2.38753e-14 0)
(2.9 1.82527e-14 0)
(2.9 1.25648e-15 0)
(2.9 4.9374e-15 0)
(2.9 8.71505e-14 0)
(2.9 4.08488e-14 0)
(2.9 -2.91461e-14 0)
(2.9 -9.47605e-15 0)
(2.9 -3.15259e-15 0)
(2.9 -7.40407e-14 0)
(2.9 -2.06433e-14 0)
(2.9 1.16924e-14 0)
(2.9 2.76675e-14 0)
(2.9 3.60626e-15 0)
(2.9 -5.17916e-14 0)
(2.9 1.6027e-14 0)
(2.9 2.59074e-14 0)
(2.9 -3.24641e-14 0)
(2.9 -9.48211e-15 0)
(2.9 8.23843e-14 0)
(2.9 1.06413e-13 0)
(2.9 6.11991e-14 0)
(2.9 -1.53319e-14 0)
(2.9 -5.96372e-14 0)
(2.9 1.46727e-14 0)
(2.9 6.48288e-14 0)
(2.9 7.44091e-14 0)
(2.9 7.55961e-14 0)
(2.9 2.75767e-14 0)
(2.9 2.58399e-14 0)
(2.9 6.51487e-14 0)
(2.9 3.36072e-14 0)
(2.9 -1.88966e-14 0)
(2.9 -1.42521e-15 0)
(2.9 2.02482e-14 0)
(2.9 5.70459e-14 0)
(2.9 2.15679e-14 0)
(2.9 2.25394e-14 0)
(2.9 6.85664e-14 0)
(2.9 -1.4129e-14 0)
(2.9 -1.85018e-14 0)
(2.9 4.82097e-14 0)
(2.9 6.2166e-15 0)
(2.9 5.02975e-14 0)
(2.9 7.23991e-15 0)
(2.9 4.02556e-14 0)
(2.9 -4.37089e-15 0)
(2.9 8.34449e-14 0)
(2.9 6.4075e-14 0)
(2.9 7.14107e-14 0)
(2.9 1.00647e-13 0)
(2.9 9.169e-14 0)
(2.9 8.10434e-14 0)
(2.9 3.23889e-14 0)
(2.9 -3.93068e-14 0)
(2.9 -5.42343e-14 0)
(2.9 -2.85668e-14 0)
(2.9 -2.49744e-14 0)
(2.9 -9.79659e-14 0)
(2.9 -9.45171e-14 0)
(2.9 -4.93281e-14 0)
(2.9 -8.0746e-14 0)
(2.9 -2.81161e-14 0)
(2.9 -8.34883e-14 0)
(2.9 -7.29153e-15 0)
(2.9 5.85291e-16 0)
(2.9 -1.41693e-14 0)
(2.9 1.79992e-14 0)
(2.9 -8.12597e-15 0)
(2.9 -4.80089e-14 0)
(2.9 -4.48442e-14 0)
(2.9 -2.88703e-15 0)
(2.9 7.14313e-14 0)
(2.9 -2.41898e-14 0)
(2.9 -1.03624e-13 0)
(2.9 3.84888e-14 0)
(2.9 8.32097e-14 0)
(2.9 -2.41317e-14 0)
(2.9 3.34552e-14 0)
(2.9 2.86701e-14 0)
(2.9 4.01452e-14 0)
(2.9 7.26556e-14 0)
(2.9 -6.41675e-14 0)
(2.9 -1.47602e-13 0)
(2.9 -7.58845e-15 0)
(2.9 2.89541e-14 0)
(2.9 4.51835e-14 0)
(2.9 7.41134e-14 0)
(2.9 1.35411e-14 0)
(2.9 -4.93597e-15 0)
(2.9 -4.47786e-15 0)
(2.9 -2.18695e-15 0)
(2.9 1.8332e-14 0)
(2.9 -2.97518e-14 0)
(2.9 7.40436e-14 0)
(2.9 1.56592e-13 0)
(2.9 5.18702e-14 0)
(2.9 -7.65345e-15 0)
(2.9 3.48065e-14 0)
(2.9 -8.11378e-15 0)
(2.9 -1.91689e-14 0)
(2.9 3.79976e-14 0)
(2.9 -3.96189e-14 0)
(2.9 7.44749e-14 0)
(2.9 7.64757e-15 0)
(2.9 8.0787e-14 0)
(2.9 6.46443e-14 0)
(2.9 9.80759e-14 0)
(2.9 1.14847e-13 0)
(2.9 9.01437e-14 0)
(2.9 1.00114e-13 0)
(2.9 1.51855e-13 0)
(2.9 1.50284e-13 0)
(2.9 7.82229e-14 0)
(2.9 -2.44549e-14 0)
(2.9 6.11076e-15 0)
(2.9 -4.85737e-14 0)
(2.9 -1.30977e-14 0)
(2.9 -7.43784e-15 0)
(2.9 3.02402e-15 0)
(2.9 -6.45825e-14 0)
(2.9 -1.30164e-13 0)
(2.9 -1.8584e-14 0)
(2.9 -1.47555e-14 0)
(2.9 -8.79358e-14 0)
(2.9 5.93021e-15 0)
(2.9 1.55916e-14 0)
(2.9 1.70971e-14 0)
(2.9 -6.3766e-15 0)
(2.9 -7.7383e-14 0)
(2.9 -2.29394e-14 0)
(2.9 4.54808e-15 0)
(2.9 3.97089e-14 0)
(2.9 3.4919e-15 0)
(2.9 -6.43467e-14 0)
(2.9 -3.17557e-14 0)
(2.9 5.85579e-14 0)
(2.9 3.6588e-14 0)
(2.9 -3.21727e-14 0)
(2.9 -9.9552e-15 0)
(2.9 -2.28199e-14 0)
(2.9 -2.26777e-14 0)
(2.9 -6.45387e-14 0)
(2.9 -1.19759e-13 0)
(2.9 -2.76284e-14 0)
(2.9 -3.20319e-14 0)
(2.9 9.1535e-15 0)
(2.9 -4.21278e-14 0)
(2.9 1.35943e-14 0)
(2.9 1.86216e-14 0)
(2.9 -7.54778e-14 0)
(2.9 3.57315e-14 0)
(2.9 6.20864e-14 0)
(2.9 1.09928e-14 0)
(2.9 4.67247e-14 0)
(2.9 1.03826e-13 0)
(2.9 2.1253e-14 0)
(2.9 -4.61797e-14 0)
(2.9 4.19609e-15 0)
(2.9 -1.90893e-14 0)
(2.9 4.31965e-14 0)
(2.9 -2.59874e-15 0)
(2.9 -1.87695e-14 0)
(2.9 3.73516e-14 0)
(2.9 -1.43653e-14 0)
(2.9 5.29619e-15 0)
(2.9 7.44147e-14 0)
(2.9 7.41875e-14 0)
(2.9 3.53515e-14 0)
(2.9 1.77111e-14 0)
(2.9 1.84359e-14 0)
(2.9 2.87328e-14 0)
(2.9 2.28622e-14 0)
(2.9 -2.47884e-16 0)
(2.9 3.75926e-14 0)
(2.9 1.09203e-13 0)
(2.9 3.59312e-14 0)
(2.9 2.55536e-14 0)
(2.9 7.78975e-14 0)
(2.9 5.6441e-14 0)
(2.9 -5.15509e-14 0)
(2.9 -4.54408e-14 0)
(2.9 -4.00504e-14 0)
(2.9 1.92803e-14 0)
(2.9 -6.32903e-14 0)
(2.9 2.59719e-14 0)
(2.9 4.25134e-15 0)
(2.9 7.78328e-15 0)
(2.9 -5.40857e-14 0)
(2.9 -8.35032e-14 0)
(2.9 1.85353e-14 0)
(2.9 3.16759e-14 0)
(2.9 2.15287e-14 0)
(2.9 -9.68525e-16 0)
(2.9 -2.32832e-14 0)
(2.9 -5.02248e-14 0)
(2.9 5.30023e-14 0)
(2.9 2.1324e-14 0)
(2.9 -4.65535e-14 0)
(2.9 -7.29054e-14 0)
(2.9 -5.47342e-14 0)
(2.9 -7.08051e-14 0)
(2.9 -5.57901e-14 0)
(2.9 -4.2995e-14 0)
(2.9 -9.64031e-15 0)
(2.9 -8.01113e-14 0)
(2.9 -1.76177e-14 0)
(2.9 -8.83485e-14 0)
(2.9 2.64339e-14 0)
(2.9 -6.88876e-17 0)
(2.9 -4.68491e-14 0)
(2.9 5.07904e-14 0)
(2.9 1.15852e-13 0)
(2.9 3.13602e-14 0)
(2.9 6.05312e-14 0)
(2.9 8.59513e-15 0)
(2.9 -2.05202e-14 0)
(2.9 -2.54616e-14 0)
(2.9 -1.13165e-15 0)
(2.9 -6.68122e-14 0)
(2.9 6.29795e-15 0)
(2.9 -4.34758e-14 0)
(2.9 3.69974e-14 0)
(2.9 -1.58481e-14 0)
(2.9 -1.62578e-14 0)
(2.9 -1.89195e-14 0)
(2.9 2.97502e-14 0)
(2.9 6.97665e-15 0)
(2.9 -3.49902e-14 0)
(2.9 -5.72411e-14 0)
(2.9 -1.01346e-13 0)
(2.9 -7.04525e-14 0)
(2.9 -5.23635e-14 0)
(2.9 -6.76788e-14 0)
(2.9 7.34696e-14 0)
(2.9 1.32172e-13 0)
(2.9 5.38393e-14 0)
(2.9 7.28208e-14 0)
(2.9 7.68254e-14 0)
(2.9 9.04024e-14 0)
(2.9 6.32096e-15 0)
(2.9 4.9106e-14 0)
(2.9 -5.55239e-14 0)
(2.9 1.24552e-15 0)
(2.9 -7.20698e-14 0)
(2.9 -5.88645e-15 0)
(2.9 -2.20456e-16 0)
(2.9 -1.0369e-14 0)
(2.9 -7.80338e-14 0)
(2.9 -6.31061e-14 0)
(2.9 5.42023e-14 0)
(2.9 5.37934e-14 0)
(2.9 -1.06878e-14 0)
(2.9 -3.123e-14 0)
(2.9 -4.04267e-15 0)
(2.9 -2.80055e-14 0)
(2.9 4.77775e-14 0)
(2.9 5.8615e-14 0)
(2.9 -2.1324e-14 0)
(2.9 -9.16589e-14 0)
(2.9 -4.68147e-14 0)
(2.9 -1.2643e-14 0)
(2.9 -3.96852e-14 0)
(2.9 1.47465e-14 0)
(2.9 4.43704e-14 0)
(2.9 -1.40697e-14 0)
(2.9 -4.4402e-14 0)
(2.9 -2.75347e-14 0)
(2.9 -4.08971e-14 0)
(2.9 3.86238e-14 0)
(2.9 -4.48352e-14 0)
(2.9 4.40458e-14 0)
(2.9 7.56671e-14 0)
(2.9 4.09843e-14 0)
(2.9 5.20379e-14 0)
(2.9 -3.72625e-14 0)
(2.9 -4.16322e-15 0)
(2.9 3.40019e-14 0)
(2.9 4.68408e-14 0)
(2.9 -5.76212e-14 0)
(2.9 -5.13336e-14 0)
(2.9 -2.72867e-14 0)
(2.9 1.0248e-13 0)
(2.9 2.29527e-14 0)
(2.9 4.68175e-14 0)
(2.9 -1.96791e-14 0)
(2.9 3.39888e-15 0)
(2.9 -9.15469e-15 0)
(2.9 -7.84941e-14 0)
(2.9 -6.08092e-15 0)
(2.9 -7.34255e-14 0)
(2.9 -3.6724e-14 0)
(2.9 -1.35895e-14 0)
(2.9 -8.0835e-14 0)
(2.9 2.41066e-15 0)
(2.9 5.00484e-14 0)
(2.9 2.83017e-14 0)
(2.9 3.22646e-14 0)
(2.9 5.5456e-14 0)
(2.9 5.79344e-14 0)
(2.9 7.06781e-14 0)
(2.9 7.07066e-14 0)
(2.9 -1.70728e-14 0)
(2.9 -4.30297e-14 0)
(2.9 -3.48361e-14 0)
(2.9 -4.60803e-14 0)
(2.9 -6.09519e-14 0)
(2.9 -1.31718e-14 0)
(2.9 -4.69656e-14 0)
(2.9 -4.42975e-14 0)
(2.9 -2.77585e-14 0)
(2.9 -4.98755e-14 0)
(2.9 -4.99007e-14 0)
(2.9 -2.72317e-14 0)
(2.9 -5.33027e-14 0)
(2.9 -2.54668e-14 0)
(2.9 -8.89568e-15 0)
(2.9 7.21959e-14 0)
(2.9 3.79763e-14 0)
(2.9 -6.87562e-14 0)
(2.9 -1.09123e-13 0)
(2.9 -4.38817e-14 0)
(2.9 -2.25081e-14 0)
(2.9 4.22734e-14 0)
(2.9 8.3545e-14 0)
(2.9 3.6331e-14 0)
(2.9 -5.73739e-15 0)
(2.9 1.41333e-14 0)
(2.9 -1.70114e-14 0)
(2.9 -4.99758e-14 0)
(2.9 -4.89994e-14 0)
(2.9 -3.27204e-14 0)
(2.9 9.18229e-15 0)
(2.9 -1.0214e-14 0)
(2.9 -4.10453e-14 0)
(2.9 -2.34552e-14 0)
(2.9 -1.98055e-14 0)
(2.9 4.25241e-14 0)
(2.9 1.48844e-14 0)
(2.9 1.75281e-14 0)