/*--------------------------------*- C++ -*----------------------------------*\
| =========                 |                                                 |
| \\      /  F ield         | OpenFOAM: The Open Source CFD Toolbox           |
|  \\    /   O peration     | Version:  2412                                  |
|   \\  /    A nd           | Website:  www.openfoam.com                      |
|    \\/     M anipulation  |                                                 |
\*---------------------------------------------------------------------------*/
FoamFile
{
    version     2.0;
    format      ascii;
    arch        "LSB;label=32;scalar=64";
    class       volScalarField;
    location    "0.0285281";
    object      TTR;
}
// * * * * * * * * * * * * * * * * * * * * * * * * * * * * * * * * * * * * * //

dimensions      [0 0 0 1 0 0 0];

internalField   nonuniform List<scalar> 
100
(
222.884
222.893
222.779
222.81
222.602
222.758
222.336
222.916
221.918
223.416
221.253
224.167
220.519
224.703
220.132
224.635
220.248
224.154
220.679
223.515
221.137
222.918
221.454
222.427
221.585
222.082
221.622
221.828
221.546
221.59
221.418
221.392
221.245
221.18
221.048
220.968
220.84
220.858
220.736
220.509
220.35
220.582
220.427
219.97
220.369
220.804
220.64
219.821
220.281
222.003
222.777
221.623
221.576
222.84
223.788
225.072
225.78
227.895
225.05
220.339
236.675
286.888
300.325
322.779
298.69
323.777
296.697
316.946
303.639
300.267
320.033
287.651
323.066
290.413
313.464
307.533
303.117
314.754
299.208
310.119
306.068
308.93
310.817
309.136
306.609
305.612
299.343
298.24
300.63
327.292
367.039
404.203
415.104
426.066
422.64
428.51
422.59
425.47
420.515
420.686
)
;

boundaryField
{
    sides
    {
        type            zeroGradient;
    }
    empty
    {
        type            empty;
    }
}


// ************************************************************************* //
