/*--------------------------------*- C++ -*----------------------------------*\
| =========                 |                                                 |
| \\      /  F ield         | OpenFOAM: The Open Source CFD Toolbox           |
|  \\    /   O peration     | Version:  2412                                  |
|   \\  /    A nd           | Website:  www.openfoam.com                      |
|    \\/     M anipulation  |                                                 |
\*---------------------------------------------------------------------------*/
FoamFile
{
    version     2.0;
    format      ascii;
    arch        "LSB;label=32;scalar=64";
    class       volScalarField;
    location    "0.0287389";
    object      TTR;
}
// * * * * * * * * * * * * * * * * * * * * * * * * * * * * * * * * * * * * * //

dimensions      [0 0 0 1 0 0 0];

internalField   nonuniform List<scalar> 
100
(
222.224
222.235
222.121
222.16
221.947
222.12
221.671
222.289
221.228
222.802
220.55
223.563
219.829
224.071
219.472
223.974
219.615
223.476
220.058
222.835
220.514
222.246
220.828
221.768
220.953
221.428
220.986
221.185
220.916
220.955
220.788
220.764
220.621
220.556
220.427
220.353
220.212
220.226
220.156
219.962
219.714
219.918
219.912
219.39
219.546
220.051
220.337
219.601
219.506
221.029
222.571
221.893
221.278
222.158
222.724
223.601
224.489
227.553
227.388
218.103
259.387
298.239
299.375
320.471
298.817
324.728
298.196
316.623
303.046
299.494
319.347
288.146
323.257
291.666
313.566
307.085
302.712
313.585
299.435
310.701
306.692
309.687
310.88
308.911
306.079
304.934
298.766
298.258
301.381
327.424
366.953
404.364
415.574
425.986
422.164
428.299
422.654
425.537
420.675
420.361
)
;

boundaryField
{
    sides
    {
        type            zeroGradient;
    }
    empty
    {
        type            empty;
    }
}


// ************************************************************************* //
