/*--------------------------------*- C++ -*----------------------------------*\
| =========                 |                                                 |
| \\      /  F ield         | OpenFOAM: The Open Source CFD Toolbox           |
|  \\    /   O peration     | Version:  2412                                  |
|   \\  /    A nd           | Website:  www.openfoam.com                      |
|    \\/     M anipulation  |                                                 |
\*---------------------------------------------------------------------------*/
FoamFile
{
    version     2.0;
    format      ascii;
    arch        "LSB;label=32;scalar=64";
    class       volScalarField;
    location    "0.0170821";
    object      TTR;
}
// * * * * * * * * * * * * * * * * * * * * * * * * * * * * * * * * * * * * * //

dimensions      [0 0 0 1 0 0 0];

internalField   nonuniform List<scalar> 
100
(
277.158
277.58
277.654
278.584
279.675
280.328
280.42
279.883
278.8
277.446
276.094
274.84
273.645
272.466
271.266
270.094
268.842
267.772
266.335
265.632
263.6
263.867
260.507
262.435
257.361
260.667
254.924
258.079
253.11
255.332
251.339
252.443
249.715
249.778
247.662
247.135
245.765
244.874
243.438
242.258
241.267
240.481
239.198
237.636
236.721
236.371
234.646
233.335
233.832
233.403
231.964
230.799
230.088
232.483
238.356
237.279
225.236
220.173
235.453
252.737
241.358
213.18
210.242
242.346
266.388
243.891
206.158
204.318
241.99
271.195
250.925
210.627
201.429
230.249
265.922
261.962
225.516
202.76
213.07
249.134
270.302
256.009
218.152
200
251.207
355.783
295.479
256.87
290.271
347.025
388.436
417.294
415.976
428.5
418.085
428.667
413.324
423.99
409.507
414.143
)
;

boundaryField
{
    sides
    {
        type            zeroGradient;
    }
    empty
    {
        type            empty;
    }
}


// ************************************************************************* //
