/*--------------------------------*- C++ -*----------------------------------*\
| =========                 |                                                 |
| \\      /  F ield         | OpenFOAM: The Open Source CFD Toolbox           |
|  \\    /   O peration     | Version:  2412                                  |
|   \\  /    A nd           | Website:  www.openfoam.com                      |
|    \\/     M anipulation  |                                                 |
\*---------------------------------------------------------------------------*/
FoamFile
{
    version     2.0;
    format      ascii;
    arch        "LSB;label=32;scalar=64";
    class       volScalarField;
    location    "0.030382";
    object      TTR;
}
// * * * * * * * * * * * * * * * * * * * * * * * * * * * * * * * * * * * * * //

dimensions      [0 0 0 1 0 0 0];

internalField   nonuniform List<scalar> 
100
(
217.357
217.38
217.252
217.342
217.049
217.386
216.702
217.681
216.105
218.31
215.376
219.059
214.771
219.336
214.629
219.02
214.938
218.437
215.443
217.802
215.873
217.268
216.147
216.883
216.253
216.592
216.251
216.391
216.209
216.239
216.1
216.079
215.968
215.939
215.817
215.785
215.676
215.588
215.429
215.473
215.605
215.217
215.186
215.372
215.545
215.432
215.161
215.764
217.294
217.461
216.34
217.324
218.831
219.869
219.566
217.603
260.696
293.201
303.941
294.459
298.621
298.29
294.236
308.261
286.896
309.595
288.936
308.463
305.5
302.78
320.746
294.757
321.918
293.214
312.913
305.851
305.634
313.002
301.905
310.183
303.934
307.553
307.46
308.968
307.735
306.914
301.695
300.141
302.584
327.82
364.805
401.394
413.691
425.617
423.132
429.115
423.449
425.517
420.746
420.365
)
;

boundaryField
{
    sides
    {
        type            zeroGradient;
    }
    empty
    {
        type            empty;
    }
}


// ************************************************************************* //
