/*--------------------------------*- C++ -*----------------------------------*\
| =========                 |                                                 |
| \\      /  F ield         | OpenFOAM: The Open Source CFD Toolbox           |
|  \\    /   O peration     | Version:  2412                                  |
|   \\  /    A nd           | Website:  www.openfoam.com                      |
|    \\/     M anipulation  |                                                 |
\*---------------------------------------------------------------------------*/
FoamFile
{
    version     2.0;
    format      ascii;
    arch        "LSB;label=32;scalar=64";
    class       surfaceScalarField;
    location    "0.0211896";
    object      phiRhoY_Y_N2;
}
// * * * * * * * * * * * * * * * * * * * * * * * * * * * * * * * * * * * * * //

dimensions      [1 0 -1 0 0 0 0];

internalField   nonuniform List<scalar> 
99
(
17.4424
34.9003
52.4008
69.9007
87.3292
104.686
122.005
139.349
156.747
174.152
191.444
208.382
224.746
240.526
256.11
272.245
289.472
307.469
327.076
349.929
375.887
403.818
437.135
475.635
499.583
501.509
500.382
496.217
491.766
490.88
490.935
492.559
499.828
506.182
508.005
508.938
510.131
511.76
513.502
515.059
516.465
518.049
519.081
519.14
519.318
521.428
522.159
521.486
521.587
522.259
522.193
522.12
522.054
520.916
520.861
525.84
526.32
515.79
510.335
523.07
542.152
535.568
497.037
494.236
534.366
567.431
538.222
479
476.564
541.42
584.372
544.246
469.667
467.012
533.752
396.051
101.506
49.7419
58.097
46.3699
42.8165
58.2753
75.1446
84.5643
65.026
37.2683
13.3517
-14.4789
-21.2531
-11.4957
-1.99023
-0.618825
-0.191826
-0.0449157
-0.00466975
1.80577e-05
4.95011e-05
3.3345e-06
2.15144e-08
)
;

boundaryField
{
    sides
    {
        type            calculated;
        value           uniform 0;
    }
    empty
    {
        type            empty;
    }
}


// ************************************************************************* //
