/*--------------------------------*- C++ -*----------------------------------*\
| =========                 |                                                 |
| \\      /  F ield         | OpenFOAM: The Open Source CFD Toolbox           |
|  \\    /   O peration     | Version:  2412                                  |
|   \\  /    A nd           | Website:  www.openfoam.com                      |
|    \\/     M anipulation  |                                                 |
\*---------------------------------------------------------------------------*/
FoamFile
{
    version     2.0;
    format      ascii;
    arch        "LSB;label=32;scalar=64";
    class       volScalarField;
    location    "0.0211896";
    object      TTR;
}
// * * * * * * * * * * * * * * * * * * * * * * * * * * * * * * * * * * * * * //

dimensions      [0 0 0 1 0 0 0];

internalField   nonuniform List<scalar> 
100
(
252.291
252.291
252.029
252.026
251.85
251.902
251.845
251.82
251.74
251.716
251.585
251.652
251.256
251.625
250.585
251.821
249.661
252.319
248.939
253.022
249.141
253.626
250.552
254.921
253.055
254.939
252.137
252.482
249.947
249.56
247.817
247.197
245.943
245.527
244.604
243.809
242.672
241.751
240.829
240.078
239.174
238.323
237.034
236.082
236.241
235.296
233.271
232.938
233.215
232.286
232.025
232.394
232.21
232.3
233.905
233.418
228.942
228.755
237.804
241.862
228.914
216.539
227.768
253.922
251.16
217.112
203.099
231.745
271.586
258.177
208.842
200
230.917
278.886
272.741
203.364
263.888
340.565
277.226
311.005
313.809
287.113
317.594
303.628
293.551
316.18
301.171
288.5
291.912
325.355
378.016
415.84
419.867
430.463
418.405
426.565
416.696
423.985
420.515
422.59
)
;

boundaryField
{
    sides
    {
        type            zeroGradient;
    }
    empty
    {
        type            empty;
    }
}


// ************************************************************************* //
