/*--------------------------------*- C++ -*----------------------------------*\
| =========                 |                                                 |
| \\      /  F ield         | OpenFOAM: The Open Source CFD Toolbox           |
|  \\    /   O peration     | Version:  2412                                  |
|   \\  /    A nd           | Website:  www.openfoam.com                      |
|    \\/     M anipulation  |                                                 |
\*---------------------------------------------------------------------------*/
FoamFile
{
    version     2.0;
    format      ascii;
    arch        "LSB;label=32;scalar=64";
    class       volVectorField;
    location    "1.96092e-05";
    object      U;
}
// * * * * * * * * * * * * * * * * * * * * * * * * * * * * * * * * * * * * * //

dimensions      [0 1 -1 0 0 0 0];

internalField   nonuniform List<vector> 
1800
(
(2.9 6.07278e-15 0)
(2.9 2.74749e-14 0)
(2.9 -4.43018e-15 0)
(2.9 5.20959e-16 0)
(2.9 -3.09045e-15 0)
(2.9 -1.1486e-15 0)
(2.9 -3.33607e-15 0)
(2.9 -2.25104e-15 0)
(2.9 -1.27689e-15 0)
(2.9 -1.00023e-14 0)
(2.9 1.2041e-15 0)
(2.9 -2.80323e-15 0)
(2.9 9.39235e-16 0)
(2.9 -5.19554e-15 0)
(2.9 -1.41353e-14 0)
(2.9 8.2545e-16 0)
(2.9 2.98775e-14 0)
(2.9 -5.59918e-16 0)
(2.9 -3.48711e-15 0)
(2.9 -4.5832e-15 0)
(2.9 1.48223e-15 0)
(2.9 -3.33286e-16 0)
(2.9 1.31566e-14 0)
(2.9 -1.18052e-14 0)
(2.9 4.31862e-15 0)
(2.9 3.0026e-14 0)
(2.9 -5.75297e-16 0)
(2.9 -1.31617e-16 0)
(2.9 -6.26576e-15 0)
(2.9 1.13865e-15 0)
(2.9 1.5731e-15 0)
(2.9 4.42875e-16 0)
(2.9 1.99221e-14 0)
(2.9 2.05914e-14 0)
(2.9 -8.99318e-16 0)
(2.9 1.72049e-15 0)
(2.9 -4.57666e-16 0)
(2.9 -9.35158e-15 0)
(2.9 6.18908e-15 0)
(2.9 3.95967e-15 0)
(2.9 7.54523e-16 0)
(2.9 1.44096e-15 0)
(2.9 -1.9239e-15 0)
(2.9 -2.85648e-15 0)
(2.9 3.74096e-15 0)
(2.9 2.2882e-15 0)
(2.9 4.72575e-16 0)
(2.9 -6.28979e-16 0)
(2.9 -7.18268e-15 0)
(2.9 -5.17448e-15 0)
(2.9 3.18606e-15 0)
(2.9 -1.67311e-15 0)
(2.9 -8.24461e-16 0)
(2.9 -2.11012e-16 0)
(2.9 -1.73491e-15 0)
(2.9 -6.49325e-15 0)
(2.9 -3.57084e-16 0)
(2.9 -1.35696e-15 0)
(2.9 7.02736e-15 0)
(2.9 1.13052e-15 0)
(2.9 3.40756e-14 0)
(2.9 2.93509e-14 0)
(2.9 -3.65235e-14 0)
(2.9 4.95494e-15 0)
(2.9 -2.00418e-14 0)
(2.9 -5.97361e-15 0)
(2.9 -2.092e-14 0)
(2.9 -1.34794e-14 0)
(2.9 -5.29616e-15 0)
(2.9 -2.50867e-15 0)
(2.9 1.07147e-14 0)
(2.9 -1.88411e-14 0)
(2.9 8.00618e-15 0)
(2.9 -2.99174e-14 0)
(2.9 -4.54158e-15 0)
(2.9 2.75621e-15 0)
(2.9 6.32959e-15 0)
(2.9 -9.87006e-15 0)
(2.9 -2.15523e-14 0)
(2.9 -2.95379e-14 0)
(2.9 1.07929e-14 0)
(2.9 -5.42909e-15 0)
(2.9 2.56224e-14 0)
(2.9 -1.83415e-14 0)
(2.9 2.39726e-14 0)
(2.9 6.50518e-15 0)
(2.9 -1.09725e-14 0)
(2.9 8.00867e-16 0)
(2.9 -4.11324e-14 0)
(2.9 8.57484e-15 0)
(2.9 9.86833e-15 0)
(2.9 -2.08774e-15 0)
(2.9 -6.92798e-16 0)
(2.9 4.32432e-15 0)
(2.9 -1.10369e-14 0)
(2.9 1.14826e-14 0)
(2.9 -1.34875e-15 0)
(2.9 4.051e-16 0)
(2.9 4.17784e-14 0)
(2.9 2.40129e-14 0)
(2.9 3.71135e-15 0)
(2.9 9.58034e-15 0)
(2.9 -1.22143e-14 0)
(2.9 -1.89134e-14 0)
(2.9 2.44097e-14 0)
(2.9 1.38263e-14 0)
(2.9 2.70195e-15 0)
(2.9 -2.31872e-15 0)
(2.9 -4.544e-14 0)
(2.9 -3.26353e-14 0)
(2.9 2.23437e-14 0)
(2.9 -1.14455e-14 0)
(2.9 -4.94559e-15 0)
(2.9 -8.47451e-16 0)
(2.9 -9.65137e-15 0)
(2.9 -4.18116e-14 0)
(2.9 -2.27481e-16 0)
(2.9 -1.06618e-14 0)
(2.9 4.58839e-14 0)
(2.9 5.49644e-15 0)
(2.9 -4.46276e-15 0)
(2.9 5.40086e-15 0)
(2.9 -1.71802e-14 0)
(2.9 -2.26461e-14 0)
(2.9 1.81479e-14 0)
(2.9 -2.21412e-14 0)
(2.9 1.8333e-14 0)
(2.9 -3.43528e-15 0)
(2.9 -2.40618e-14 0)
(2.9 -5.16221e-15 0)
(2.9 2.52529e-16 0)
(2.9 1.99686e-14 0)
(2.9 -7.77537e-15 0)
(2.9 2.80415e-14 0)
(2.9 3.91328e-17 0)
(2.9 1.40639e-14 0)
(2.9 6.7759e-15 0)
(2.9 1.26174e-14 0)
(2.9 1.93744e-14 0)
(2.9 3.26624e-14 0)
(2.9 3.6932e-15 0)
(2.9 2.44127e-14 0)
(2.9 8.33124e-15 0)
(2.9 2.43378e-14 0)
(2.9 5.15611e-15 0)
(2.9 2.61732e-15 0)
(2.9 9.45244e-16 0)
(2.9 1.70023e-14 0)
(2.9 2.81861e-14 0)
(2.9 -9.35185e-15 0)
(2.9 -1.11057e-14 0)
(2.9 -1.43383e-14 0)
(2.9 -2.39761e-14 0)
(2.9 5.97964e-15 0)
(2.9 -1.27805e-15 0)
(2.9 1.71705e-15 0)
(2.9 -9.6352e-15 0)
(2.9 1.90977e-15 0)
(2.9 3.02499e-14 0)
(2.9 -7.53385e-15 0)
(2.9 1.15628e-14 0)
(2.9 -9.36358e-15 0)
(2.9 -3.13776e-16 0)
(2.9 2.07902e-14 0)
(2.9 6.56956e-15 0)
(2.9 4.92295e-15 0)
(2.9 1.19619e-14 0)
(2.9 -1.97886e-15 0)
(2.9 1.57215e-14 0)
(2.9 1.8873e-14 0)
(2.9 5.02408e-15 0)
(2.9 -2.90075e-15 0)
(2.9 -2.35831e-14 0)
(2.9 -9.98027e-16 0)
(2.9 2.13358e-14 0)
(2.9 2.907e-14 0)
(2.9 1.14795e-14 0)
(2.9 -5.37397e-15 0)
(2.9 -3.63793e-15 0)
(2.9 1.7088e-14 0)
(2.9 1.65543e-15 0)
(2.9 3.65055e-15 0)
(2.9 8.54318e-15 0)
(2.9 -4.3845e-15 0)
(2.9 5.17112e-15 0)
(2.9 5.74363e-16 0)
(2.9 2.5505e-15 0)
(2.9 -3.95295e-15 0)
(2.9 5.48703e-17 0)
(2.9 -2.01397e-14 0)
(2.9 -1.28604e-14 0)
(2.9 5.35368e-15 0)
(2.9 2.62505e-16 0)
(2.9 -1.69032e-15 0)
(2.9 -3.42732e-15 0)
(2.9 1.07773e-14 0)
(2.9 2.49089e-14 0)
(2.9 1.03977e-14 0)
(2.9 -7.54998e-15 0)
(2.9 1.60056e-14 0)
(2.9 -4.19945e-15 0)
(2.9 1.17239e-14 0)
(2.9 8.90902e-15 0)
(2.9 2.40541e-14 0)
(2.9 -1.94379e-15 0)
(2.9 6.56961e-15 0)
(2.9 1.15948e-14 0)
(2.9 2.31439e-14 0)
(2.9 6.45317e-15 0)
(2.9 -1.27364e-15 0)
(2.9 -2.90006e-15 0)
(2.9 -6.10358e-15 0)
(2.9 -4.13265e-15 0)
(2.9 -2.80879e-14 0)
(2.9 2.32084e-15 0)
(2.9 5.74831e-16 0)
(2.9 1.00117e-14 0)
(2.9 5.31021e-15 0)
(2.9 7.40258e-16 0)
(2.9 -1.29355e-14 0)
(2.9 1.4544e-15 0)
(2.9 -1.21325e-15 0)
(2.9 7.67191e-15 0)
(2.9 6.70918e-15 0)
(2.9 5.8816e-15 0)
(2.9 9.02924e-15 0)
(2.9 -3.7529e-16 0)
(2.9 -1.53644e-14 0)
(2.9 2.46424e-15 0)
(2.9 6.17986e-15 0)
(2.9 1.64897e-15 0)
(2.9 -1.47658e-16 0)
(2.9 1.28473e-15 0)
(2.9 -4.0889e-15 0)
(2.9 -4.81194e-15 0)
(2.9 6.25973e-15 0)
(2.9 -4.88152e-15 0)
(2.9 -2.07616e-14 0)
(2.9 -6.08671e-15 0)
(2.9 2.26638e-14 0)
(2.9 1.22763e-14 0)
(2.9 1.16983e-14 0)
(2.9 1.66081e-15 0)
(2.9 -4.72898e-15 0)
(2.9 1.12055e-14 0)
(2.9 2.35861e-14 0)
(2.9 -3.40414e-15 0)
(2.9 -1.90355e-14 0)
(2.9 2.9894e-14 0)
(2.9 2.26671e-14 0)
(2.9 -4.98303e-15 0)
(2.9 1.25904e-14 0)
(2.9 8.43284e-15 0)
(2.9 -3.64746e-14 0)
(2.9 -2.07424e-14 0)
(2.9 -2.23456e-14 0)
(2.9 -2.67688e-17 0)
(2.9 -2.20058e-14 0)
(2.9 -4.64646e-15 0)
(2.9 -4.44653e-15 0)
(2.9 -3.33633e-14 0)
(2.9 -2.35741e-14 0)
(2.9 3.22355e-14 0)
(2.9 -1.87476e-14 0)
(2.9 -2.3332e-14 0)
(2.9 3.14875e-14 0)
(2.9 -6.72387e-15 0)
(2.9 -1.93046e-14 0)
(2.9 2.4575e-15 0)
(2.9 1.49154e-15 0)
(2.9 -3.15187e-15 0)
(2.9 -1.75964e-14 0)
(2.9 9.09046e-15 0)
(2.9 -3.49123e-14 0)
(2.9 2.07675e-14 0)
(2.9 -1.37357e-15 0)
(2.9 6.36642e-16 0)
(2.9 2.48898e-14 0)
(2.9 -2.44045e-14 0)
(2.9 -1.60175e-15 0)
(2.9 -2.26839e-16 0)
(2.9 7.29545e-16 0)
(2.9 -2.14433e-14 0)
(2.9 1.28667e-14 0)
(2.9 2.21534e-14 0)
(2.9 -1.93629e-14 0)
(2.9 -1.26026e-14 0)
(2.9 -2.05154e-14 0)
(2.9 3.03953e-16 0)
(2.9 1.43882e-14 0)
(2.9 2.79934e-15 0)
(2.9 1.42959e-15 0)
(2.9 3.16756e-14 0)
(2.9 -2.08125e-14 0)
(2.9 -4.84016e-14 0)
(2.9 7.92906e-15 0)
(2.9 -3.49003e-14 0)
(2.9 1.87532e-14 0)
(2.9 -3.03399e-14 0)
(2.9 -2.15303e-14 0)
(2.9 4.18938e-15 0)
(2.9 -4.9798e-15 0)
(2.9 -1.23127e-15 0)
(2.9 -2.49723e-14 0)
(2.9 -1.03995e-14 0)
(2.9 2.22683e-15 0)
(2.9 -2.23918e-14 0)
(2.9 1.80174e-14 0)
(2.9 -2.39275e-14 0)
(2.9 1.37316e-14 0)
(2.9 -2.30538e-14 0)
(2.9 4.32456e-16 0)
(2.9 -1.06989e-14 0)
(2.9 -8.30215e-15 0)
(2.9 2.85322e-14 0)
(2.9 -3.66911e-15 0)
(2.9 -1.43661e-14 0)
(2.9 -5.35782e-15 0)
(2.9 -1.19442e-14 0)
(2.9 -3.14911e-14 0)
(2.9 1.52878e-14 0)
(2.9 -1.60835e-14 0)
(2.9 -9.21958e-15 0)
(2.9 -4.18481e-15 0)
(2.9 -4.35623e-15 0)
(2.9 -1.4083e-14 0)
(2.9 1.14104e-14 0)
(2.9 -3.04962e-15 0)
(2.9 1.11286e-14 0)
(2.9 9.78342e-15 0)
(2.9 -1.0402e-14 0)
(2.9 3.31337e-14 0)
(2.9 4.01206e-15 0)
(2.9 1.65952e-14 0)
(2.9 -4.70894e-15 0)
(2.9 -1.31724e-14 0)
(2.9 -1.18763e-14 0)
(2.9 1.21382e-14 0)
(2.9 -1.55322e-14 0)
(2.9 1.00767e-14 0)
(2.9 -2.24426e-15 0)
(2.9 1.03455e-14 0)
(2.9 -3.5872e-15 0)
(2.9 1.41705e-15 0)
(2.9 -7.72764e-15 0)
(2.9 7.45014e-15 0)
(2.9 3.18154e-15 0)
(2.9 3.06796e-14 0)
(2.9 5.67067e-16 0)
(2.9 9.60545e-15 0)
(2.9 1.00717e-14 0)
(2.9 -1.31269e-16 0)
(2.9 -1.00929e-14 0)
(2.9 1.85405e-14 0)
(2.9 -8.069e-15 0)
(2.9 -5.52741e-15 0)
(2.9 -5.67205e-15 0)
(2.9 1.40803e-14 0)
(2.9 2.77412e-14 0)
(2.9 -3.43729e-15 0)
(2.9 1.26582e-14 0)
(2.9 2.26228e-14 0)
(2.9 -1.23753e-15 0)
(2.9 -4.71158e-15 0)
(2.9 -4.15019e-16 0)
(2.9 -3.63848e-15 0)
(2.9 4.64843e-16 0)
(2.9 4.36906e-15 0)
(2.9 1.85449e-14 0)
(2.9 1.35703e-15 0)
(2.9 -9.74397e-17 0)
(2.9 -2.06364e-15 0)
(2.9 -2.8307e-15 0)
(2.9 -1.36935e-14 0)
(2.9 -7.07393e-15 0)
(2.9 -1.37286e-15 0)
(2.9 -1.45248e-14 0)
(2.9 -1.20513e-15 0)
(2.9 1.02296e-14 0)
(2.9 1.81083e-14 0)
(2.9 3.63023e-15 0)
(2.9 -3.56784e-15 0)
(2.9 -1.58577e-14 0)
(2.9 -1.14914e-15 0)
(2.9 3.6044e-15 0)
(2.9 -4.81165e-14 0)
(2.9 1.10648e-14 0)
(2.9 -2.83671e-15 0)
(2.9 -5.28188e-15 0)
(2.9 -1.04206e-14 0)
(2.9 -1.95002e-15 0)
(2.9 1.35494e-14 0)
(2.9 1.27297e-15 0)
(2.9 1.13886e-15 0)
(2.9 -4.74468e-14 0)
(2.9 -4.71579e-15 0)
(2.9 -3.17877e-15 0)
(2.9 -1.40893e-14 0)
(2.9 -3.78772e-15 0)
(2.9 -1.39769e-15 0)
(2.9 -1.70854e-14 0)
(2.9 -4.94985e-15 0)
(2.9 -1.32537e-15 0)
(2.9 -2.31313e-15 0)
(2.9 -4.1755e-15 0)
(2.9 -1.08489e-15 0)
(2.9 2.11223e-14 0)
(2.9 6.74889e-16 0)
(2.9 -6.84531e-15 0)
(2.9 -2.66129e-14 0)
(2.9 -1.21211e-14 0)
(2.9 -2.14669e-15 0)
(2.9 -2.90347e-14 0)
(2.9 2.17731e-15 0)
(2.9 6.28279e-16 0)
(2.9 -3.51326e-14 0)
(2.9 1.52642e-15 0)
(2.9 -8.84923e-15 0)
(2.9 -7.42075e-15 0)
(2.9 -3.43179e-15 0)
(2.9 -3.98237e-17 0)
(2.9 1.47934e-15 0)
(2.9 -9.76968e-15 0)
(2.9 -6.34106e-16 0)
(2.9 1.02936e-14 0)
(2.9 -2.24314e-14 0)
(2.9 2.47746e-14 0)
(2.9 1.31214e-15 0)
(2.9 -3.24038e-16 0)
(2.9 -1.06119e-14 0)
(2.9 2.27407e-14 0)
(2.9 -1.11861e-14 0)
(2.9 -1.192e-15 0)
(2.9 -2.08521e-15 0)
(2.9 -1.26163e-15 0)
(2.9 1.22218e-15 0)
(2.9 -2.21054e-15 0)
(2.9 -1.91811e-16 0)
(2.9 1.62439e-15 0)
(2.9 2.7347e-15 0)
(2.9 1.08154e-15 0)
(2.9 -8.44741e-16 0)
(2.9 -1.42425e-14 0)
(2.9 7.11546e-16 0)
(2.9 3.59747e-14 0)
(2.9 -3.66285e-15 0)
(2.9 -1.06261e-15 0)
(2.9 -1.4203e-14 0)
(2.9 -3.6962e-14 0)
(2.9 -2.91353e-15 0)
(2.9 -1.19388e-15 0)
(2.9 -2.05576e-14 0)
(2.9 -6.36983e-16 0)
(2.9 4.34557e-16 0)
(2.9 -5.19019e-15 0)
(2.9 -5.79381e-16 0)
(2.9 -1.30119e-15 0)
(2.9 -2.55386e-14 0)
(2.9 -1.64611e-15 0)
(2.9 -1.28227e-14 0)
(2.9 -2.78403e-14 0)
(2.9 -3.32261e-14 0)
(2.9 -2.15635e-15 0)
(2.9 -1.27675e-14 0)
(2.9 -1.42251e-14 0)
(2.9 -1.75019e-14 0)
(2.9 -1.2088e-14 0)
(2.9 -3.04291e-14 0)
(2.9 -3.19857e-14 0)
(2.9 -2.63677e-14 0)
(2.9 -7.60617e-15 0)
(2.9 -1.86118e-15 0)
(2.9 -2.4629e-14 0)
(2.9 2.73694e-16 0)
(2.9 1.95849e-14 0)
(2.9 -8.02768e-16 0)
(2.9 2.44248e-14 0)
(2.9 1.42087e-15 0)
(2.9 -3.01329e-15 0)
(2.9 -1.29028e-14 0)
(2.9 -1.31797e-14 0)
(2.9 -1.20905e-14 0)
(2.9 9.62563e-15 0)
(2.9 1.05136e-15 0)
(2.9 -1.31783e-16 0)
(2.9 -2.77173e-15 0)
(2.9 1.57513e-14 0)
(2.9 -2.90315e-15 0)
(2.9 -1.83334e-14 0)
(2.9 -2.35871e-15 0)
(2.9 5.24487e-15 0)
(2.9 -1.94561e-15 0)
(2.9 -6.88232e-16 0)
(2.9 2.64733e-15 0)
(2.9 2.8859e-16 0)
(2.9 9.19417e-15 0)
(2.9 1.91659e-15 0)
(2.9 3.47932e-16 0)
(2.9 -1.7993e-15 0)
(2.9 -3.76808e-15 0)
(2.9 1.786e-15 0)
(2.9 2.19965e-15 0)
(2.9 2.21213e-16 0)
(2.9 -1.62848e-16 0)
(2.9 7.36688e-15 0)
(2.9 1.93494e-14 0)
(2.9 -1.28102e-14 0)
(2.9 -3.58727e-15 0)
(2.9 -6.51232e-15 0)
(2.9 3.52532e-15 0)
(2.9 1.22774e-15 0)
(2.9 -1.16903e-15 0)
(2.9 4.98053e-17 0)
(2.9 2.7253e-15 0)
(2.9 1.87499e-14 0)
(2.9 2.99018e-15 0)
(2.9 2.23283e-15 0)
(2.9 -6.35863e-16 0)
(2.9 3.95037e-15 0)
(2.9 3.92449e-16 0)
(2.9 8.85809e-17 0)
(2.9 1.68919e-14 0)
(2.9 6.61974e-16 0)
(2.9 -1.45266e-15 0)
(2.9 -4.45957e-15 0)
(2.9 -2.65376e-14 0)
(2.9 -1.37588e-14 0)
(2.9 3.00936e-14 0)
(2.9 3.20279e-14 0)
(2.9 1.60463e-14 0)
(2.9 -2.30762e-14 0)
(2.9 -4.32071e-16 0)
(2.9 1.89554e-14 0)
(2.9 5.21961e-16 0)
(2.9 -1.81211e-14 0)
(2.9 2.02653e-14 0)
(2.9 7.78924e-15 0)
(2.9 1.14627e-14 0)
(2.9 -6.38188e-15 0)
(2.9 -1.21298e-15 0)
(2.9 -1.02994e-14 0)
(2.9 -4.68029e-15 0)
(2.9 2.69252e-15 0)
(2.9 4.28176e-15 0)
(2.9 -1.06719e-14 0)
(2.9 3.40433e-15 0)
(2.9 6.08447e-16 0)
(2.9 -1.6719e-14 0)
(2.9 2.59414e-14 0)
(2.9 6.83576e-16 0)
(2.9 7.03807e-15 0)
(2.9 -5.94762e-16 0)
(2.9 -2.77341e-15 0)
(2.9 1.67838e-14 0)
(2.9 2.28245e-16 0)
(2.9 -1.39048e-14 0)
(2.9 1.04311e-14 0)
(2.9 1.93311e-15 0)
(2.9 -1.07661e-14 0)
(2.9 -2.34233e-14 0)
(2.9 9.41421e-15 0)
(2.9 1.23976e-14 0)
(2.9 1.49744e-14 0)
(2.9 -3.38735e-15 0)
(2.9 2.01123e-16 0)
(2.9 -1.37336e-14 0)
(2.9 -1.06307e-14 0)
(2.9 -9.5743e-16 0)
(2.9 9.87387e-16 0)
(2.9 2.3661e-14 0)
(2.9 7.40741e-15 0)
(2.9 1.36178e-14 0)
(2.9 6.26514e-16 0)
(2.9 1.03432e-14 0)
(2.9 -1.82731e-14 0)
(2.9 1.21178e-14 0)
(2.9 1.31364e-14 0)
(2.9 2.06456e-14 0)
(2.9 2.34367e-14 0)
(2.9 1.39854e-14 0)
(2.9 2.41568e-14 0)
(2.9 8.54078e-16 0)
(2.9 1.92699e-15 0)
(2.9 5.61905e-15 0)
(2.9 -3.7228e-15 0)
(2.9 9.20607e-16 0)
(2.9 -1.87139e-15 0)
(2.9 3.97558e-15 0)
(2.9 9.55862e-15 0)
(2.9 -1.28369e-14 0)
(2.9 1.93851e-15 0)
(2.9 4.37568e-16 0)
(2.9 3.83276e-15 0)
(2.9 2.32265e-15 0)
(2.9 9.55156e-16 0)
(2.9 -1.03342e-14 0)
(2.9 1.09221e-14 0)
(2.9 -1.1859e-15 0)
(2.9 -3.48165e-14 0)
(2.9 8.07928e-15 0)
(2.9 -4.48603e-14 0)
(2.9 -1.20302e-14 0)
(2.9 5.54985e-15 0)
(2.9 2.42769e-14 0)
(2.9 2.14966e-15 0)
(2.9 2.39575e-14 0)
(2.9 -9.18674e-15 0)
(2.9 2.97767e-14 0)
(2.9 -2.28003e-14 0)
(2.9 -1.71745e-15 0)
(2.9 -2.90452e-14 0)
(2.9 -2.43688e-15 0)
(2.9 -1.84278e-14 0)
(2.9 2.78925e-14 0)
(2.9 3.11668e-16 0)
(2.9 -2.59461e-14 0)
(2.9 -4.20237e-15 0)
(2.9 1.04774e-14 0)
(2.9 1.03246e-14 0)
(2.9 2.18009e-16 0)
(2.9 -9.9383e-15 0)
(2.9 -2.26914e-15 0)
(2.9 -4.51972e-14 0)
(2.9 -2.20894e-14 0)
(2.9 -2.16454e-15 0)
(2.9 3.28934e-14 0)
(2.9 2.03946e-14 0)
(2.9 5.60169e-16 0)
(2.9 6.60289e-15 0)
(2.9 -5.95163e-16 0)
(2.9 -3.19059e-14 0)
(2.9 -5.09602e-14 0)
(2.9 -2.34446e-15 0)
(2.9 -4.30208e-15 0)
(2.9 6.89881e-16 0)
(2.9 2.40731e-15 0)
(2.9 -4.24483e-16 0)
(2.9 -1.96496e-14 0)
(2.9 -8.3454e-15 0)
(2.9 2.67514e-15 0)
(2.9 4.1016e-15 0)
(2.9 -1.84139e-14 0)
(2.9 8.52836e-15 0)
(2.9 -2.98122e-14 0)
(2.9 -1.76864e-14 0)
(2.9 3.29728e-14 0)
(2.9 2.32858e-15 0)
(2.9 -9.91095e-15 0)
(2.9 2.26335e-14 0)
(2.9 3.57671e-14 0)
(2.9 3.68346e-14 0)
(2.9 1.7601e-15 0)
(2.9 1.46091e-15 0)
(2.9 1.11581e-14 0)
(2.9 2.53504e-14 0)
(2.9 4.53253e-14 0)
(2.9 -7.45644e-15 0)
(2.9 -1.2548e-14 0)
(2.9 9.13028e-16 0)
(2.9 -1.049e-14 0)
(2.9 7.02708e-15 0)
(2.9 1.07081e-14 0)
(2.9 2.50746e-14 0)
(2.9 2.54723e-15 0)
(2.9 1.12014e-14 0)
(2.9 4.9379e-15 0)
(2.9 -1.33423e-15 0)
(2.9 3.98134e-16 0)
(2.9 2.96858e-14 0)
(2.9 2.11026e-15 0)
(2.9 2.19647e-14 0)
(2.9 -1.54842e-15 0)
(2.9 2.05556e-14 0)
(2.9 1.58264e-14 0)
(2.9 6.25765e-16 0)
(2.9 -2.58753e-15 0)
(2.9 3.29114e-14 0)
(2.9 -8.29542e-15 0)
(2.9 2.36565e-15 0)
(2.9 2.4581e-14 0)
(2.9 -1.15858e-15 0)
(2.9 -1.20812e-14 0)
(2.9 -7.26975e-15 0)
(2.9 1.84048e-14 0)
(2.9 -1.48442e-14 0)
(2.9 2.77954e-15 0)
(2.9 -1.03149e-14 0)
(2.9 -2.46451e-15 0)
(2.9 3.52973e-14 0)
(2.9 -2.08805e-14 0)
(2.9 1.71778e-14 0)
(2.9 2.69287e-14 0)
(2.9 -5.89611e-16 0)
(2.9 -3.3464e-14 0)
(2.9 2.24633e-14 0)
(2.9 9.93883e-16 0)
(2.9 -1.13219e-14 0)
(2.9 -1.72467e-15 0)
(2.9 -2.58038e-15 0)
(2.9 1.81316e-15 0)
(2.9 2.22886e-15 0)
(2.9 2.00696e-14 0)
(2.9 -5.95214e-15 0)
(2.9 2.01174e-14 0)
(2.9 3.07218e-14 0)
(2.9 -3.59891e-15 0)
(2.9 9.16135e-15 0)
(2.9 -1.82774e-15 0)
(2.9 -1.6425e-14 0)
(2.9 7.90641e-15 0)
(2.9 4.24605e-15 0)
(2.9 -8.6493e-17 0)
(2.9 1.04321e-15 0)
(2.9 -9.67224e-15 0)
(2.9 1.16445e-16 0)
(2.9 5.11761e-15 0)
(2.9 2.73755e-15 0)
(2.9 -3.70892e-15 0)
(2.9 4.54355e-14 0)
(2.9 -9.53421e-16 0)
(2.9 1.97902e-14 0)
(2.9 7.15076e-16 0)
(2.9 3.96863e-15 0)
(2.9 -1.89133e-14 0)
(2.9 -4.96809e-15 0)
(2.9 8.35065e-16 0)
(2.9 5.28927e-16 0)
(2.9 -3.42453e-14 0)
(2.9 -2.38163e-15 0)
(2.9 1.00696e-15 0)
(2.9 2.46147e-14 0)
(2.9 -1.61311e-14 0)
(2.9 2.92685e-15 0)
(2.9 -8.33189e-15 0)
(2.9 9.38473e-17 0)
(2.9 3.66497e-15 0)
(2.9 1.66782e-16 0)
(2.9 -1.86557e-15 0)
(2.9 -1.16591e-15 0)
(2.9 9.52951e-15 0)
(2.9 5.76293e-16 0)
(2.9 3.08195e-16 0)
(2.9 3.44699e-15 0)
(2.9 3.49075e-15 0)
(2.9 -2.21513e-14 0)
(2.9 -1.1891e-14 0)
(2.9 -1.45959e-14 0)
(2.9 -2.00274e-14 0)
(2.9 5.73987e-15 0)
(2.9 -1.64834e-15 0)
(2.9 -5.20559e-16 0)
(2.9 7.37874e-15 0)
(2.9 7.74538e-16 0)
(2.9 2.53312e-15 0)
(2.9 5.43563e-15 0)
(2.9 4.68039e-16 0)
(2.9 8.47657e-16 0)
(2.9 1.36207e-14 0)
(2.9 -6.03209e-15 0)
(2.9 7.34721e-15 0)
(2.9 2.91772e-15 0)
(2.9 4.57552e-15 0)
(2.9 1.1631e-14 0)
(2.9 9.2468e-15 0)
(2.9 -4.87289e-15 0)
(2.9 4.5233e-16 0)
(2.9 -1.32179e-14 0)
(2.9 1.46048e-15 0)
(2.9 1.08849e-14 0)
(2.9 1.06565e-14 0)
(2.9 -1.52801e-14 0)
(2.9 -3.77178e-15 0)
(2.9 6.70246e-15 0)
(2.9 -1.87578e-15 0)
(2.9 -2.39333e-14 0)
(2.9 -1.79389e-14 0)
(2.9 2.22458e-14 0)
(2.9 -1.93085e-14 0)
(2.9 -2.29513e-16 0)
(2.9 -5.36961e-15 0)
(2.9 -1.98421e-14 0)
(2.9 -1.25583e-14 0)
(2.9 1.09492e-15 0)
(2.9 1.88826e-14 0)
(2.9 -3.44601e-14 0)
(2.9 8.63274e-16 0)
(2.9 1.22243e-14 0)
(2.9 -7.81456e-16 0)
(2.9 -3.4864e-14 0)
(2.9 -1.78133e-15 0)
(2.9 -8.01345e-15 0)
(2.9 3.1433e-14 0)
(2.9 1.42451e-15 0)
(2.9 2.99152e-16 0)
(2.9 1.01995e-15 0)
(2.9 2.28181e-14 0)
(2.9 -3.24818e-14 0)
(2.9 -1.93601e-15 0)
(2.9 -1.06721e-14 0)
(2.9 2.82143e-14 0)
(2.9 2.09635e-15 0)
(2.9 1.30144e-14 0)
(2.9 2.51788e-14 0)
(2.9 5.06547e-15 0)
(2.9 2.03858e-14 0)
(2.9 2.9775e-15 0)
(2.9 1.00221e-16 0)
(2.9 1.98307e-14 0)
(2.9 1.4228e-15 0)
(2.9 1.04702e-14 0)
(2.9 -2.13067e-14 0)
(2.9 1.38323e-14 0)
(2.9 2.47371e-15 0)
(2.9 4.58222e-14 0)
(2.9 6.9311e-15 0)
(2.9 2.50741e-17 0)
(2.9 1.25128e-14 0)
(2.9 1.53401e-14 0)
(2.9 -3.5589e-14 0)
(2.9 -2.32592e-14 0)
(2.9 1.1076e-14 0)
(2.9 1.49542e-15 0)
(2.9 4.00619e-15 0)
(2.9 2.95488e-14 0)
(2.9 2.89216e-15 0)
(2.9 1.03069e-14 0)
(2.9 -1.99573e-14 0)
(2.9 1.03224e-14 0)
(2.9 1.08817e-14 0)
(2.9 -1.05915e-14 0)
(2.9 -2.74749e-14 0)
(2.9 -1.87524e-14 0)
(2.9 3.74407e-14 0)
(2.9 3.27179e-15 0)
(2.9 -2.09341e-15 0)
(2.9 2.1988e-14 0)
(2.9 3.39988e-15 0)
(2.9 1.75083e-14 0)
(2.9 -4.08713e-14 0)
(2.9 -2.73514e-14 0)
(2.9 -5.67917e-15 0)
(2.9 -2.65815e-15 0)
(2.9 4.68279e-16 0)
(2.9 5.49079e-15 0)
(2.9 -1.46747e-15 0)
(2.9 9.21303e-15 0)
(2.9 4.05301e-15 0)
(2.9 3.54495e-14 0)
(2.9 -1.10769e-15 0)
(2.9 -5.05143e-16 0)
(2.9 -1.32498e-14 0)
(2.9 2.88896e-15 0)
(2.9 -2.52535e-15 0)
(2.9 9.35548e-15 0)
(2.9 3.17412e-17 0)
(2.9 4.31706e-15 0)
(2.9 3.86205e-15 0)
(2.9 1.43576e-15 0)
(2.9 -1.20026e-15 0)
(2.9 2.26954e-14 0)
(2.9 1.19848e-15 0)
(2.9 2.38293e-15 0)
(2.9 5.58289e-15 0)
(2.9 1.33645e-14 0)
(2.9 7.23555e-15 0)
(2.9 2.38593e-14 0)
(2.9 9.96049e-15 0)
(2.9 3.55347e-15 0)
(2.9 -5.32772e-15 0)
(2.9 1.44106e-15 0)
(2.9 2.60839e-15 0)
(2.9 1.06201e-14 0)
(2.9 -1.19828e-15 0)
(2.9 -2.82367e-15 0)
(2.9 2.16506e-14 0)
(2.9 -4.87713e-15 0)
(2.9 1.97394e-15 0)
(2.9 1.3693e-14 0)
(2.9 -1.0054e-16 0)
(2.9 -4.19642e-15 0)
(2.9 5.45457e-16 0)
(2.9 1.9025e-16 0)
(2.9 3.1171e-15 0)
(2.9 2.65482e-14 0)
(2.9 1.12379e-14 0)
(2.9 -2.13728e-15 0)
(2.9 2.35986e-14 0)
(2.9 -5.11388e-15 0)
(2.9 -1.33994e-14 0)
(2.9 -2.40944e-15 0)
(2.9 -3.97665e-15 0)
(2.9 2.39375e-14 0)
(2.9 1.5305e-14 0)
(2.9 1.11533e-14 0)
(2.9 6.68787e-15 0)
(2.9 1.37304e-14 0)
(2.9 -1.31441e-14 0)
(2.9 -5.70712e-16 0)
(2.9 2.82064e-14 0)
(2.9 -3.86864e-15 0)
(2.9 -1.184e-14 0)
(2.9 -9.43368e-16 0)
(2.9 8.83629e-16 0)
(2.9 1.17659e-14 0)
(2.9 2.2884e-14 0)
(2.9 -1.34941e-14 0)
(2.9 -2.7472e-16 0)
(2.9 7.34519e-15 0)
(2.9 2.03368e-14 0)
(2.9 2.42926e-15 0)
(2.9 -2.81489e-15 0)
(2.9 -1.17927e-14 0)
(2.9 -1.83361e-14 0)
(2.9 -1.08698e-14 0)
(2.9 -4.15561e-15 0)
(2.9 1.04944e-16 0)
(2.9 -1.03744e-14 0)
(2.9 9.27239e-15 0)
(2.9 -1.57047e-15 0)
(2.9 -2.82672e-14 0)
(2.9 -1.64132e-15 0)
(2.9 -1.65208e-15 0)
(2.9 1.76067e-15 0)
(2.9 2.9586e-15 0)
(2.9 1.07495e-14 0)
(2.9 -9.9317e-16 0)
(2.9 -1.4401e-14 0)
(2.9 -1.40089e-15 0)
(2.9 -3.18193e-14 0)
(2.9 -1.73682e-15 0)
(2.9 3.26874e-14 0)
(2.9 -1.83176e-14 0)
(2.9 -1.07804e-14 0)
(2.9 -3.67981e-15 0)
(2.9 -1.11939e-14 0)
(2.9 -3.26483e-14 0)
(2.9 -3.59029e-15 0)
(2.9 -2.93823e-15 0)
(2.9 3.26302e-14 0)
(2.9 -1.00638e-16 0)
(2.9 -6.95928e-15 0)
(2.9 -1.20754e-15 0)
(2.9 6.9755e-15 0)
(2.9 -1.20133e-14 0)
(2.9 -9.57956e-15 0)
(2.9 -3.05602e-14 0)
(2.9 2.67088e-14 0)
(2.9 2.19928e-14 0)
(2.9 -2.02152e-14 0)
(2.9 1.34344e-15 0)
(2.9 6.3027e-16 0)
(2.9 2.25474e-14 0)
(2.9 -2.42945e-14 0)
(2.9 -9.53282e-15 0)
(2.9 3.30959e-14 0)
(2.9 -7.59567e-15 0)
(2.9 -1.62913e-14 0)
(2.9 -2.4327e-14 0)
(2.9 9.3719e-15 0)
(2.9 3.26793e-16 0)
(2.9 1.71997e-16 0)
(2.9 1.42071e-16 0)
(2.9 1.71787e-15 0)
(2.9 -9.19567e-15 0)
(2.9 2.73599e-15 0)
(2.9 -2.6155e-14 0)
(2.9 -4.12832e-15 0)
(2.9 2.81468e-16 0)
(2.9 -1.43136e-14 0)
(2.9 9.6117e-15 0)
(2.9 -1.3128e-16 0)
(2.9 -3.08761e-16 0)
(2.9 3.22652e-14 0)
(2.9 -1.24009e-15 0)
(2.9 -2.0148e-14 0)
(2.9 -6.99313e-16 0)
(2.9 -4.5588e-16 0)
(2.9 -1.00226e-14 0)
(2.9 -2.98675e-15 0)
(2.9 -5.24792e-14 0)
(2.9 -3.24896e-15 0)
(2.9 -1.15376e-14 0)
(2.9 4.09092e-15 0)
(2.9 5.66981e-17 0)
(2.9 -1.11399e-14 0)
(2.9 -2.8519e-14 0)
(2.9 -2.64189e-14 0)
(2.9 -3.6564e-16 0)
(2.9 1.89231e-14 0)
(2.9 -1.12715e-14 0)
(2.9 -5.76832e-15 0)
(2.9 8.49006e-15 0)
(2.9 9.61484e-15 0)
(2.9 -1.2145e-14 0)
(2.9 -1.18733e-14 0)
(2.9 1.64499e-14 0)
(2.9 -1.33633e-14 0)
(2.9 -3.67596e-14 0)
(2.9 -7.49271e-15 0)
(2.9 -2.34263e-15 0)
(2.9 -3.87967e-14 0)
(2.9 -6.77419e-15 0)
(2.9 -2.4192e-14 0)
(2.9 -2.94599e-14 0)
(2.9 8.79632e-15 0)
(2.9 1.77023e-14 0)
(2.9 4.06303e-16 0)
(2.9 -4.99631e-16 0)
(2.9 -4.08896e-14 0)
(2.9 -4.82183e-14 0)
(2.9 1.57298e-15 0)
(2.9 -1.95132e-14 0)
(2.9 -2.69288e-14 0)
(2.9 -3.23042e-15 0)
(2.9 -8.34209e-15 0)
(2.9 -5.9793e-14 0)
(2.9 -6.21684e-15 0)
(2.9 -6.428e-15 0)
(2.9 -3.35979e-14 0)
(2.9 3.239e-15 0)
(2.9 1.23647e-14 0)
(2.9 1.19109e-15 0)
(2.9 1.07264e-14 0)
(2.9 -8.79903e-16 0)
(2.9 4.31063e-16 0)
(2.9 -4.93291e-15 0)
(2.9 -1.64002e-14 0)
(2.9 -1.41627e-15 0)
(2.9 2.38365e-14 0)
(2.9 -8.74603e-15 0)
(2.9 -1.60549e-16 0)
(2.9 2.5945e-15 0)
(2.9 8.47186e-15 0)
(2.9 1.13045e-15 0)
(2.9 1.90868e-14 0)
(2.9 1.056e-15 0)
(2.9 1.04771e-14 0)
(2.9 -1.05458e-15 0)
(2.9 -1.78916e-16 0)
(2.9 -8.96967e-15 0)
(2.9 -8.5708e-16 0)
(2.9 6.27675e-16 0)
(2.9 2.3589e-14 0)
(2.9 -8.52756e-16 0)
(2.9 -2.91483e-15 0)
(2.9 -2.20008e-14 0)
(2.9 1.08085e-15 0)
(2.9 1.28774e-15 0)
(2.9 1.33229e-14 0)
(2.9 -9.06231e-16 0)
(2.9 -1.03035e-15 0)
(2.9 1.51417e-15 0)
(2.9 1.87559e-15 0)
(2.9 -1.60028e-16 0)
(2.9 7.50766e-15 0)
(2.9 4.09339e-15 0)
(2.9 -2.63236e-15 0)
(2.9 -6.7234e-15 0)
(2.9 -1.86497e-15 0)
(2.9 -1.94321e-15 0)
(2.9 -1.66852e-14 0)
(2.9 -2.12257e-14 0)
(2.9 -6.41227e-15 0)
(2.9 -2.14768e-14 0)
(2.9 -1.75256e-15 0)
(2.9 7.97736e-16 0)
(2.9 -2.8657e-14 0)
(2.9 -1.52916e-14 0)
(2.9 -5.64736e-15 0)
(2.9 -7.2054e-15 0)
(2.9 2.42157e-14 0)
(2.9 1.4053e-15 0)
(2.9 6.57787e-15 0)
(2.9 3.49458e-16 0)
(2.9 -1.44024e-15 0)
(2.9 -5.26611e-15 0)
(2.9 -2.06523e-15 0)
(2.9 -1.65681e-15 0)
(2.9 -5.56119e-15 0)
(2.9 2.50874e-14 0)
(2.9 8.05636e-15 0)
(2.9 7.88504e-16 0)
(2.9 -5.21367e-15 0)
(2.9 1.68009e-15 0)
(2.9 9.66447e-16 0)
(2.9 2.85823e-15 0)
(2.9 -2.21268e-14 0)
(2.9 -9.83917e-15 0)
(2.9 2.25699e-14 0)
(2.9 -7.81381e-16 0)
(2.9 8.92778e-16 0)
(2.9 1.26092e-14 0)
(2.9 1.35308e-14 0)
(2.9 9.87636e-16 0)
(2.9 -6.46209e-16 0)
(2.9 -5.31796e-16 0)
(2.9 -4.52059e-15 0)
(2.9 1.88583e-15 0)
(2.9 4.43755e-15 0)
(2.9 3.16699e-15 0)
(2.9 6.34245e-16 0)
(2.9 9.57084e-15 0)
(2.9 4.08763e-16 0)
(2.9 -9.7708e-15 0)
(2.9 6.87889e-16 0)
(2.9 3.29169e-14 0)
(2.9 3.73314e-14 0)
(2.9 3.85311e-15 0)
(2.9 -8.22504e-15 0)
(2.9 3.50875e-15 0)
(2.9 -8.95504e-17 0)
(2.9 -3.13211e-16 0)
(2.9 4.77379e-16 0)
(2.9 8.98053e-15 0)
(2.9 -1.03312e-14 0)
(2.9 5.01762e-15 0)
(2.9 -4.77181e-16 0)
(2.9 7.44596e-16 0)
(2.9 -7.95172e-16 0)
(2.9 -3.90121e-15 0)
(2.9 1.52837e-14 0)
(2.9 2.05292e-14 0)
(2.9 -1.16311e-15 0)
(2.9 -2.38967e-14 0)
(2.9 -1.34914e-14 0)
(2.9 -6.07809e-15 0)
(2.9 -2.97056e-14 0)
(2.9 -1.29446e-14 0)
(2.9 1.50283e-14 0)
(2.9 4.32813e-15 0)
(2.9 7.90448e-15 0)
(2.9 1.98189e-14 0)
(2.9 8.75655e-18 0)
(2.9 3.9491e-15 0)
(2.9 1.46387e-15 0)
(2.9 3.16387e-14 0)
(2.9 -3.42008e-15 0)
(2.9 -6.58135e-16 0)
(2.9 -2.67824e-15 0)
(2.9 4.84527e-15 0)
(2.9 3.42128e-14 0)
(2.9 2.62201e-15 0)
(2.9 2.26309e-14 0)
(2.9 1.1243e-14 0)
(2.9 3.92663e-15 0)
(2.9 2.54286e-14 0)
(2.9 2.14357e-14 0)
(2.9 9.74515e-15 0)
(2.9 -2.21659e-14 0)
(2.9 -1.08128e-15 0)
(2.9 2.22618e-15 0)
(2.9 6.62314e-16 0)
(2.9 9.46932e-17 0)
(2.9 1.24314e-15 0)
(2.9 -2.27488e-14 0)
(2.9 -2.68835e-15 0)
(2.9 -3.57759e-14 0)
(2.9 1.14362e-14 0)
(2.9 2.34375e-14 0)
(2.9 2.53358e-14 0)
(2.9 1.23297e-15 0)
(2.9 -1.07636e-14 0)
(2.9 -2.1298e-14 0)
(2.9 9.38647e-15 0)
(2.9 9.37449e-16 0)
(2.9 6.4886e-15 0)
(2.9 7.83029e-15 0)
(2.9 1.33368e-14 0)
(2.9 2.22017e-15 0)
(2.9 2.21308e-14 0)
(2.9 -8.33621e-17 0)
(2.9 -3.34484e-15 0)
(2.9 -1.34311e-15 0)
(2.9 -1.05034e-14 0)
(2.9 -5.03369e-15 0)
(2.9 -3.67288e-14 0)
(2.9 -1.37986e-15 0)
(2.9 1.12968e-14 0)
(2.9 -1.74568e-15 0)
(2.9 -2.28522e-14 0)
(2.9 3.42345e-14 0)
(2.9 5.72786e-15 0)
(2.9 8.80937e-16 0)
(2.9 1.83573e-14 0)
(2.9 -2.71047e-15 0)
(2.9 -2.40426e-14 0)
(2.9 -5.27123e-15 0)
(2.9 1.00264e-14 0)
(2.9 2.8045e-14 0)
(2.9 2.56644e-14 0)
(2.9 1.35242e-14 0)
(2.9 -1.946e-14 0)
(2.9 -1.20154e-14 0)
(2.9 2.09736e-14 0)
(2.9 1.01335e-15 0)
(2.9 -7.67815e-15 0)
(2.9 -2.43474e-14 0)
(2.9 -5.80005e-16 0)
(2.9 -1.03925e-14 0)
(2.9 9.75674e-16 0)
(2.9 4.92873e-17 0)
(2.9 1.06882e-16 0)
(2.9 1.20918e-15 0)
(2.9 -8.86923e-15 0)
(2.9 1.20172e-14 0)
(2.9 6.03864e-15 0)
(2.9 6.49401e-15 0)
(2.9 1.09572e-15 0)
(2.9 -2.148e-14 0)
(2.9 -4.35551e-16 0)
(2.9 1.14444e-14 0)
(2.9 -9.32013e-15 0)
(2.9 -1.33734e-14 0)
(2.9 1.116e-14 0)
(2.9 9.54712e-16 0)
(2.9 -4.84969e-16 0)
(2.9 -6.63502e-15 0)
(2.9 1.31483e-15 0)
(2.9 -9.24261e-15 0)
(2.9 5.50751e-15 0)
(2.9 2.60007e-15 0)
(2.9 -1.43195e-15 0)
(2.9 7.86595e-15 0)
(2.9 3.55943e-15 0)
(2.9 7.74117e-16 0)
(2.9 9.22936e-16 0)
(2.9 1.27437e-15 0)
(2.9 4.48214e-15 0)
(2.9 1.20681e-14 0)
(2.9 -7.43444e-15 0)
(2.9 -4.99159e-15 0)
(2.9 -1.76088e-14 0)
(2.9 -4.38414e-15 0)
(2.9 -2.79531e-15 0)
(2.9 -6.21013e-15 0)
(2.9 -1.79655e-14 0)
(2.9 -1.10052e-15 0)
(2.9 -5.7646e-16 0)
(2.9 -5.99878e-15 0)
(2.9 -4.60304e-15 0)
(2.9 -1.06906e-14 0)
(2.9 2.67544e-15 0)
(2.9 4.36074e-16 0)
(2.9 2.6712e-16 0)
(2.9 -2.54663e-16 0)
(2.9 6.14877e-16 0)
(2.9 4.03254e-15 0)
(2.9 4.04005e-16 0)
(2.9 5.39902e-15 0)
(2.9 1.6931e-15 0)
(2.9 2.43291e-15 0)
(2.9 -2.0758e-15 0)
(2.9 -3.89409e-15 0)
(2.9 -1.10338e-14 0)
(2.9 1.22496e-15 0)
(2.9 -5.82714e-15 0)
(2.9 -3.62213e-15 0)
(2.9 5.43398e-15 0)
(2.9 7.94059e-15 0)
(2.9 3.04001e-15 0)
(2.9 -3.3908e-14 0)
(2.9 -2.36609e-15 0)
(2.9 -1.3847e-14 0)
(2.9 -5.38071e-16 0)
(2.9 3.21194e-16 0)
(2.9 3.45443e-15 0)
(2.9 1.26882e-14 0)
(2.9 -1.75278e-16 0)
(2.9 2.90053e-14 0)
(2.9 1.05908e-15 0)
(2.9 5.7122e-16 0)
(2.9 1.12473e-14 0)
(2.9 -1.18698e-14 0)
(2.9 6.65134e-16 0)
(2.9 2.55816e-14 0)
(2.9 1.22284e-15 0)
(2.9 -9.73021e-16 0)
(2.9 -2.82296e-16 0)
(2.9 -1.33688e-14 0)
(2.9 6.27655e-15 0)
(2.9 1.22286e-14 0)
(2.9 3.35158e-16 0)
(2.9 1.58601e-15 0)
(2.9 8.1934e-15 0)
(2.9 2.28975e-15 0)
(2.9 -1.98183e-15 0)
(2.9 -2.03551e-15 0)
(2.9 8.07408e-15 0)
(2.9 2.34013e-15 0)
(2.9 -2.08756e-15 0)
(2.9 -2.14654e-14 0)
(2.9 -2.85753e-14 0)
(2.9 -1.82092e-14 0)
(2.9 -2.31808e-15 0)
(2.9 -2.43357e-14 0)
(2.9 2.17935e-15 0)
(2.9 -3.96553e-16 0)
(2.9 -1.27695e-14 0)
(2.9 -3.01252e-14 0)
(2.9 1.42264e-15 0)
(2.9 -2.97934e-14 0)
(2.9 1.13347e-14 0)
(2.9 5.06862e-16 0)
(2.9 -1.68614e-14 0)
(2.9 1.02077e-15 0)
(2.9 2.67476e-14 0)
(2.9 2.74195e-14 0)
(2.9 -1.01281e-14 0)
(2.9 1.06339e-15 0)
(2.9 -1.82957e-14 0)
(2.9 -3.86141e-18 0)
(2.9 8.49236e-15 0)
(2.9 -6.37108e-15 0)
(2.9 -1.8327e-14 0)
(2.9 9.77015e-15 0)
(2.9 -2.3729e-14 0)
(2.9 4.26433e-15 0)
(2.9 2.96295e-14 0)
(2.9 5.23151e-14 0)
(2.9 1.31388e-14 0)
(2.9 -6.52954e-15 0)
(2.9 -1.61179e-15 0)
(2.9 -1.41199e-14 0)
(2.9 9.23938e-15 0)
(2.9 -1.0932e-14 0)
(2.9 9.94588e-15 0)
(2.9 3.29255e-17 0)
(2.9 -1.20922e-14 0)
(2.9 -6.91835e-15 0)
(2.9 -6.67454e-16 0)
(2.9 -1.12552e-14 0)
(2.9 1.10535e-14 0)
(2.9 7.94869e-15 0)
(2.9 -1.06948e-14 0)
(2.9 1.40155e-14 0)
(2.9 1.53144e-15 0)
(2.9 8.78741e-16 0)
(2.9 3.80953e-16 0)
(2.9 -3.25008e-15 0)
(2.9 -3.32154e-14 0)
(2.9 5.81337e-16 0)
(2.9 -2.35974e-17 0)
(2.9 -1.14846e-15 0)
(2.9 -2.17641e-14 0)
(2.9 1.01985e-14 0)
(2.9 -1.19727e-14 0)
(2.9 -1.38346e-14 0)
(2.9 -2.27372e-14 0)
(2.9 -6.27815e-16 0)
(2.9 4.62481e-16 0)
(2.9 1.93115e-14 0)
(2.9 -5.36914e-15 0)
(2.9 -2.59189e-14 0)
(2.9 1.89392e-16 0)
(2.9 -2.66455e-15 0)
(2.9 3.57628e-14 0)
(2.9 1.66964e-15 0)
(2.9 2.22247e-16 0)
(2.9 3.09554e-14 0)
(2.9 2.67281e-14 0)
(2.9 3.11844e-14 0)
(2.9 4.10277e-15 0)
(2.9 3.8647e-15 0)
(2.9 3.15572e-14 0)
(2.9 3.88579e-15 0)
(2.9 1.46334e-14 0)
(2.9 1.76345e-14 0)
(2.9 -4.81005e-16 0)
(2.9 7.33628e-15 0)
(2.9 2.23714e-14 0)
(2.9 2.73856e-16 0)
(2.9 -1.22975e-14 0)
(2.9 -2.87779e-14 0)
(2.9 -2.83346e-14 0)
(2.9 1.76528e-17 0)
(2.9 -3.02347e-15 0)
(2.9 2.58805e-14 0)
(2.9 1.90915e-14 0)
(2.9 1.94075e-14 0)
(2.9 -9.00312e-15 0)
(2.9 -3.22774e-15 0)
(2.9 -1.71611e-15 0)
(2.9 -3.30026e-15 0)
(2.9 -5.15324e-15 0)
(2.9 -2.55938e-15 0)
(2.9 -8.75938e-15 0)
(2.9 -1.21446e-14 0)
(2.9 -2.01284e-15 0)
(2.9 -1.36985e-15 0)
(2.9 -4.24783e-16 0)
(2.9 -2.45073e-15 0)
(2.9 -1.21099e-14 0)
(2.9 -7.07078e-15 0)
(2.9 -2.23972e-15 0)
(2.9 -8.88287e-15 0)
(2.9 3.95545e-15 0)
(2.9 5.16922e-15 0)
(2.9 2.86939e-15 0)
(2.9 3.39174e-15 0)
(2.9 -5.64643e-16 0)
(2.9 -1.22721e-15 0)
(2.9 -3.27265e-16 0)
(2.9 -2.66709e-15 0)
(2.9 -5.07479e-15 0)
(2.9 -5.20494e-16 0)
(2.9 -3.71507e-16 0)
(2.9 -3.41855e-15 0)
(2.9 -4.55095e-15 0)
(2.9 -5.17594e-16 0)
(2.9 2.3396e-16 0)
(2.9 3.72855e-15 0)
(2.9 2.73611e-16 0)
(2.9 1.99763e-15 0)
(2.9 1.01683e-14 0)
(2.9 1.07271e-15 0)
(2.9 7.22168e-15 0)
(2.9 8.67657e-16 0)
(2.9 6.34008e-15 0)
(2.9 6.16443e-15 0)
(2.9 5.58526e-15 0)
(2.9 6.33931e-15 0)
(2.9 2.9935e-15 0)
(2.9 1.24232e-14 0)
(2.9 9.85473e-16 0)
(2.9 9.3534e-15 0)
(2.9 -1.39971e-14 0)