/*--------------------------------*- C++ -*----------------------------------*\
| =========                 |                                                 |
| \\      /  F ield         | OpenFOAM: The Open Source CFD Toolbox           |
|  \\    /   O peration     | Version:  2412                                  |
|   \\  /    A nd           | Website:  www.openfoam.com                      |
|    \\/     M anipulation  |                                                 |
\*---------------------------------------------------------------------------*/
FoamFile
{
    version     2.0;
    format      ascii;
    arch        "LSB;label=32;scalar=64";
    class       surfaceScalarField;
    location    "0.0214404";
    object      phiRhoY_Y_N2;
}
// * * * * * * * * * * * * * * * * * * * * * * * * * * * * * * * * * * * * * //

dimensions      [1 0 -1 0 0 0 0];

internalField   nonuniform List<scalar> 
99
(
16.8972
33.7848
50.7099
67.654
84.552
101.392
118.168
134.897
151.638
168.431
185.254
201.953
218.259
233.924
249.078
264.294
279.927
296.072
313.344
332.043
353.303
377.377
403.662
435.089
474.473
503.525
507.154
506.307
502.887
497.342
495.023
495.102
495.526
499.884
507.896
510.945
511.66
512.311
513.357
514.865
516.402
517.915
519.554
519.725
519.519
520.561
522.104
521.848
521.515
522.103
522.128
522.071
522.315
521.376
520.1
522.922
527.758
524.022
511.463
510.96
537.31
544.197
517.97
490.448
501.367
559.745
563.022
506.827
468.374
494.413
571.605
575.36
512.325
459.252
440.184
157.417
81.8606
59.3723
61.1703
55.0685
48.8505
56.3466
70.2325
77.23
65.7256
29.9395
-20.7728
-48.545
-32.2739
-13.6883
-2.26319
0.129237
0.0379219
0.0011959
-0.00041031
1.94096e-05
2.63971e-05
2.0731e-06
3.12116e-08
)
;

boundaryField
{
    sides
    {
        type            calculated;
        value           uniform 0;
    }
    empty
    {
        type            empty;
    }
}


// ************************************************************************* //
