/*--------------------------------*- C++ -*----------------------------------*\
| =========                 |                                                 |
| \\      /  F ield         | OpenFOAM: The Open Source CFD Toolbox           |
|  \\    /   O peration     | Version:  2412                                  |
|   \\  /    A nd           | Website:  www.openfoam.com                      |
|    \\/     M anipulation  |                                                 |
\*---------------------------------------------------------------------------*/
FoamFile
{
    version     2.0;
    format      ascii;
    arch        "LSB;label=32;scalar=64";
    class       volScalarField;
    location    "0.0407811";
    object      rho;
}
// * * * * * * * * * * * * * * * * * * * * * * * * * * * * * * * * * * * * * //

dimensions      [1 -3 0 0 0 0 0];

internalField   nonuniform List<scalar> 
100
(
0.245224
0.245054
0.244812
0.24453
0.244267
0.244058
0.243918
0.243845
0.243822
0.243829
0.243843
0.24384
0.243798
0.243715
0.243629
0.243574
0.243561
0.243579
0.243464
0.243
0.245392
0.352505
0.5944
0.625141
0.610426
0.592368
0.588184
0.588731
0.592992
0.60014
0.621753
0.639763
0.646632
0.65221
0.653816
0.637306
0.619541
0.618972
0.624787
0.634595
0.654557
0.670099
0.678125
0.685058
0.688665
0.684273
0.683956
0.690419
0.700838
0.712504
0.72051
0.721102
0.714533
0.716475
0.724117
0.737312
0.749473
0.757226
0.756512
0.74924
0.750789
0.758991
0.777702
0.800315
0.810762
0.81622
0.805392
0.790326
0.787668
0.795252
0.806704
0.82102
0.836427
0.844239
0.852705
0.856415
0.855111
0.862343
0.866867
0.869311
0.871581
0.879653
0.891289
0.908393
0.923799
0.927516
0.918407
0.911203
0.897804
0.88154
0.859652
0.843799
0.836272
0.823161
0.802494
0.782088
0.76847
0.759002
0.758798
0.74843
)
;

boundaryField
{
    sides
    {
        type            calculated;
        value           nonuniform List<scalar> 2(0.74843 0.245224);
    }
    empty
    {
        type            empty;
    }
}


// ************************************************************************* //
