/*--------------------------------*- C++ -*----------------------------------*\
| =========                 |                                                 |
| \\      /  F ield         | OpenFOAM: The Open Source CFD Toolbox           |
|  \\    /   O peration     | Version:  2412                                  |
|   \\  /    A nd           | Website:  www.openfoam.com                      |
|    \\/     M anipulation  |                                                 |
\*---------------------------------------------------------------------------*/
FoamFile
{
    version     2.0;
    format      ascii;
    arch        "LSB;label=32;scalar=64";
    class       surfaceScalarField;
    location    "0.00126944";
    object      phiRhoY_Y_N2;
}
// * * * * * * * * * * * * * * * * * * * * * * * * * * * * * * * * * * * * * //

dimensions      [1 0 -1 0 0 0 0];

internalField   nonuniform List<scalar> 
99
(
3.41061e-13
-1.13687e-13
0
0
1.13687e-13
1.13687e-13
-2.27374e-13
0
-2.27374e-13
-1.13687e-13
0
0
-1.13687e-13
-1.13687e-13
0
0
0
-1.13687e-13
-1.13687e-13
-1.13687e-13
3.41061e-13
3.41061e-13
-3.41061e-13
-1.13687e-13
2.27374e-13
1.13687e-13
-2.27374e-13
1.13687e-13
-1.13687e-13
4.54747e-13
4.54747e-13
3.41061e-13
0
3.41061e-13
0
0
-2.27374e-13
-3.41061e-13
-5.68434e-13
1.13687e-13
3.07205e-09
4.7173e-06
0.00362646
0.892081
28.67
148.614
302.117
410.874
459.197
495.271
513.529
388.062
182.243
58.9044
11.546
0.312742
1.18731e-05
3.34147e-15
1.91162e-30
4.17619e-51
0
0
0
0
0
0
0
0
0
0
0
0
0
0
0
0
0
0
0
0
0
0
0
0
0
0
0
0
0
0
0
0
0
0
0
0
0
0
0
)
;

boundaryField
{
    sides
    {
        type            calculated;
        value           uniform 0;
    }
    empty
    {
        type            empty;
    }
}


// ************************************************************************* //
