/*--------------------------------*- C++ -*----------------------------------*\
| =========                 |                                                 |
| \\      /  F ield         | OpenFOAM: The Open Source CFD Toolbox           |
|  \\    /   O peration     | Version:  2412                                  |
|   \\  /    A nd           | Website:  www.openfoam.com                      |
|    \\/     M anipulation  |                                                 |
\*---------------------------------------------------------------------------*/
FoamFile
{
    version     2.0;
    format      ascii;
    arch        "LSB;label=32;scalar=64";
    class       volScalarField;
    location    "0.0197114";
    object      TTR;
}
// * * * * * * * * * * * * * * * * * * * * * * * * * * * * * * * * * * * * * //

dimensions      [0 0 0 1 0 0 0];

internalField   nonuniform List<scalar> 
100
(
260.364
260.38
259.993
260.034
259.923
259.97
259.884
259.767
259.6
259.466
259.366
259.405
259.466
260.012
260.327
261.575
261.316
263.295
261.221
262.849
258.371
260.84
255.445
258.281
253.587
256.1
252.238
253.708
250.786
251.267
249.097
248.982
247.449
246.837
245.493
244.718
243.694
242.83
241.675
240.658
239.648
238.979
238.188
236.876
235.328
235.416
234.942
232.966
232.537
232.805
232.271
232.181
232.258
231.243
231.682
236.065
236.613
227.604
222.521
234.194
249.577
240.254
214.44
211.958
243.651
266.062
240.918
202.793
204.96
249.457
276.75
245.895
200.591
200
241.393
277.715
259.649
212.172
200
307.949
315.22
277.118
324.832
300.558
289.431
326.054
300.463
282.311
285.341
321.388
368.93
410.1
416.592
433.799
424.192
431.076
418.443
425.942
419.465
422.156
)
;

boundaryField
{
    sides
    {
        type            zeroGradient;
    }
    empty
    {
        type            empty;
    }
}


// ************************************************************************* //
