/*--------------------------------*- C++ -*----------------------------------*\
| =========                 |                                                 |
| \\      /  F ield         | OpenFOAM: The Open Source CFD Toolbox           |
|  \\    /   O peration     | Version:  2412                                  |
|   \\  /    A nd           | Website:  www.openfoam.com                      |
|    \\/     M anipulation  |                                                 |
\*---------------------------------------------------------------------------*/
FoamFile
{
    version     2.0;
    format      ascii;
    arch        "LSB;label=32;scalar=64";
    class       volScalarField;
    location    "0.0517539";
    object      p;
}
// * * * * * * * * * * * * * * * * * * * * * * * * * * * * * * * * * * * * * //

dimensions      [1 -1 -2 0 0 0 0];

internalField   nonuniform List<scalar> 
100
(
97927.4
92612.7
92676.7
91297.2
97945.4
99728.9
99667.2
94393.5
91059.3
89866.7
89723.1
97009.6
104363
82576.4
45424.6
35782.9
36366.8
37041.3
38066.2
41120.9
41917.1
42651.3
42429.9
42439.8
41858
42483.7
42342.7
42661.7
42035.9
42501.6
42597.2
43403.3
44429.5
45453.5
45747.2
45993.5
45103.1
44827.7
45136.1
46523.2
51250.6
53768.9
54316
54715.7
54508.3
51244.1
46701.5
45068.3
44975.6
45270.8
45586.3
45708.6
45557.2
45496.8
45831.4
46232.5
46741.1
47369.3
48077.4
48671.8
49167.7
49365.7
48723.1
47617.8
46975.1
46746.6
46859.2
47172.3
47697.2
48180.2
48740.8
49164.2
49033.2
48783
48200.9
48453.3
47957.8
48582.8
48128.2
48541.9
48440.5
48161.8
48584.4
48010
48789.5
48170.7
48862.3
48440.2
48633.7
48712.2
48538.6
48773.1
48349.9
48670.3
48207
48643.7
48346.1
48750.9
48614.5
48710.1
)
;

boundaryField
{
    sides
    {
        type            zeroGradient;
    }
    empty
    {
        type            empty;
    }
}


// ************************************************************************* //
