/*--------------------------------*- C++ -*----------------------------------*\
| =========                 |                                                 |
| \\      /  F ield         | OpenFOAM: The Open Source CFD Toolbox           |
|  \\    /   O peration     | Version:  2412                                  |
|   \\  /    A nd           | Website:  www.openfoam.com                      |
|    \\/     M anipulation  |                                                 |
\*---------------------------------------------------------------------------*/
FoamFile
{
    version     2.0;
    format      ascii;
    arch        "LSB;label=32;scalar=64";
    class       volScalarField;
    location    "0.0489755";
    object      p;
}
// * * * * * * * * * * * * * * * * * * * * * * * * * * * * * * * * * * * * * //

dimensions      [1 -1 -2 0 0 0 0];

internalField   nonuniform List<scalar> 
100
(
86714.4
86036.6
94630.2
93559.2
102258
102821
94321.9
49094.8
38844.3
39106
39095.9
38158.2
37626.1
38224.1
38527.3
40502.8
41011.9
41807.7
41358.6
40479.6
39436.7
40085.9
40308.9
43202.5
45063.2
45926.5
46044
45325.4
42449.8
41535.2
41679.1
42155.1
42860.5
45209.5
47057.6
47706.6
48082.4
48102.6
47887.1
48074.5
48361.3
48489.1
48258.3
48360.6
48801.6
49444.9
50590.5
51416.7
51904.9
51873.9
51147.8
51064.1
51603.5
53759
58313.7
60273.8
60936.5
61283.4
59978.2
55819.8
52547.8
51555.9
51528.7
51626
51780.3
51746.2
51954.7
52309.2
52959.5
53546.4
54159
54964.8
55164.1
55361
54216.8
54225.8
53103
53496.1
53398
53716.1
54643
54507.1
55606.1
54504.1
55172
54271.8
54707.8
54749.9
54657.3
54864.6
54525.9
54823
54369.4
54818.8
54256
54718.9
54287.7
54693.7
54542.5
54671.5
)
;

boundaryField
{
    sides
    {
        type            zeroGradient;
    }
    empty
    {
        type            empty;
    }
}


// ************************************************************************* //
