/*--------------------------------*- C++ -*----------------------------------*\
| =========                 |                                                 |
| \\      /  F ield         | OpenFOAM: The Open Source CFD Toolbox           |
|  \\    /   O peration     | Version:  2412                                  |
|   \\  /    A nd           | Website:  www.openfoam.com                      |
|    \\/     M anipulation  |                                                 |
\*---------------------------------------------------------------------------*/
FoamFile
{
    version     2.0;
    format      ascii;
    arch        "LSB;label=32;scalar=64";
    class       volScalarField;
    location    "0.0489755";
    object      rho;
}
// * * * * * * * * * * * * * * * * * * * * * * * * * * * * * * * * * * * * * //

dimensions      [1 -3 0 0 0 0 0];

internalField   nonuniform List<scalar> 
100
(
0.940486
0.973119
0.999408
1.00882
1.03982
1.08503
1.02188
0.639269
0.518301
0.522694
0.522337
0.510499
0.507332
0.510476
0.516743
0.533431
0.541976
0.545514
0.54481
0.5304
0.524608
0.527313
0.533699
0.560895
0.582995
0.588624
0.592408
0.582804
0.554586
0.54508
0.548235
0.552245
0.560434
0.584849
0.603939
0.610068
0.614565
0.614874
0.613539
0.616032
0.619578
0.620861
0.618535
0.619592
0.6238
0.630162
0.641744
0.650181
0.655498
0.655427
0.648255
0.648157
0.653266
0.675223
0.720085
0.737304
0.743232
0.746475
0.73416
0.693682
0.662381
0.653063
0.652238
0.652994
0.653703
0.653921
0.65508
0.659019
0.664071
0.66974
0.675568
0.682294
0.686797
0.685
0.680253
0.675327
0.674327
0.674109
0.679289
0.682028
0.684331
0.684273
0.6791
0.668905
0.649837
0.627836
0.603928
0.584231
0.572442
0.565778
0.562027
0.560422
0.56005
0.560146
0.56073
0.561256
0.562509
0.56362
0.564705
0.565236
)
;

boundaryField
{
    sides
    {
        type            calculated;
        value           nonuniform List<scalar> 2(0.565236 0.940486);
    }
    empty
    {
        type            empty;
    }
}


// ************************************************************************* //
