/*--------------------------------*- C++ -*----------------------------------*\
| =========                 |                                                 |
| \\      /  F ield         | OpenFOAM: The Open Source CFD Toolbox           |
|  \\    /   O peration     | Version:  2412                                  |
|   \\  /    A nd           | Website:  www.openfoam.com                      |
|    \\/     M anipulation  |                                                 |
\*---------------------------------------------------------------------------*/
FoamFile
{
    version     2.0;
    format      ascii;
    arch        "LSB;label=32;scalar=64";
    class       volScalarField;
    location    "0.0121253";
    object      rho;
}
// * * * * * * * * * * * * * * * * * * * * * * * * * * * * * * * * * * * * * //

dimensions      [1 -3 0 0 0 0 0];

internalField   nonuniform List<scalar> 
100
(
1.12308
1.12308
1.12308
1.12308
1.12308
1.12308
1.12308
1.12308
1.12306
1.12202
1.11082
1.07886
1.03996
1.0076
0.982112
0.96041
0.940384
0.921079
0.902158
0.88354
0.865213
0.847183
0.829432
0.811983
0.794769
0.777922
0.761237
0.745087
0.729102
0.71348
0.698681
0.682767
0.669372
0.654056
0.640168
0.62737
0.613039
0.600002
0.586577
0.574859
0.561354
0.548626
0.536064
0.524507
0.513632
0.50393
0.491595
0.477887
0.468226
0.467459
0.468472
0.464124
0.44842
0.442867
0.463667
0.488467
0.478848
0.437056
0.427177
0.466788
0.502668
0.48689
0.433534
0.421095
0.457757
0.499874
0.492187
0.444693
0.424168
0.44075
0.490513
0.503989
0.477516
0.426434
0.412373
0.43039
0.481662
0.529139
0.534312
0.515191
0.478487
0.443552
0.418432
0.398019
0.387082
0.38462
0.384512
0.384261
0.382499
0.377343
0.376243
0.376296
0.377489
0.381028
0.385891
0.51025
0.822597
0.915021
0.875759
0.749299
)
;

boundaryField
{
    sides
    {
        type            calculated;
        value           nonuniform List<scalar> 2(0.749299 1.12308);
    }
    empty
    {
        type            empty;
    }
}


// ************************************************************************* //
