/*--------------------------------*- C++ -*----------------------------------*\
| =========                 |                                                 |
| \\      /  F ield         | OpenFOAM: The Open Source CFD Toolbox           |
|  \\    /   O peration     | Version:  2412                                  |
|   \\  /    A nd           | Website:  www.openfoam.com                      |
|    \\/     M anipulation  |                                                 |
\*---------------------------------------------------------------------------*/
FoamFile
{
    version     2.0;
    format      ascii;
    arch        "LSB;label=32;scalar=64";
    class       surfaceScalarField;
    location    "0.0353154";
    object      phiRhoY_Y_N2;
}
// * * * * * * * * * * * * * * * * * * * * * * * * * * * * * * * * * * * * * //

dimensions      [1 0 -1 0 0 0 0];

internalField   nonuniform List<scalar> 
99
(
4.51411
9.03199
13.5577
18.0866
22.6136
27.1365
31.6536
36.1809
40.7047
45.2309
49.7542
54.2696
58.781
63.2722
67.7642
72.2492
76.7317
81.2085
85.6838
90.165
94.6411
99.1159
103.577
108.025
112.455
116.877
121.287
125.687
130.065
134.413
138.727
143.017
147.297
151.576
155.866
160.157
164.386
168.583
173.118
176.68
137.001
-324.859
-403.706
-355.146
-320.987
-322.584
-326.959
-338.415
-347.366
-349.641
-338.055
-310.172
-299.893
-298.303
-300.903
-304.314
-311.128
-314.269
-311.608
-286.59
-252.833
-233.244
-229.268
-228.559
-235.151
-238.205
-234.472
-225.068
-216.126
-203.951
-193.07
-185.471
-184.563
-183.892
-168.055
-145.996
-128.737
-126.95
-131.531
-128.798
-111.812
-96.6784
-84.2051
-66.0781
-28.0949
9.60009
27.2338
38.0028
31.0472
14.1553
2.44744
-0.0506307
-0.0569002
-0.010775
-0.00123608
-0.000178665
-1.55367e-05
-4.73999e-07
0
)
;

boundaryField
{
    sides
    {
        type            calculated;
        value           uniform 0;
    }
    empty
    {
        type            empty;
    }
}


// ************************************************************************* //
