/*--------------------------------*- C++ -*----------------------------------*\
| =========                 |                                                 |
| \\      /  F ield         | OpenFOAM: The Open Source CFD Toolbox           |
|  \\    /   O peration     | Version:  2412                                  |
|   \\  /    A nd           | Website:  www.openfoam.com                      |
|    \\/     M anipulation  |                                                 |
\*---------------------------------------------------------------------------*/
FoamFile
{
    version     2.0;
    format      ascii;
    arch        "LSB;label=32;scalar=64";
    class       volScalarField;
    location    "0.0390428";
    object      rhoY_Y_N2;
}
// * * * * * * * * * * * * * * * * * * * * * * * * * * * * * * * * * * * * * //

dimensions      [1 -3 0 0 0 0 0];

internalField   nonuniform List<scalar> 
100
(
0.258872
0.258969
0.259072
0.259149
0.259169
0.259072
0.258876
0.258644
0.258343
0.258062
0.257907
0.257829
0.257854
0.257955
0.258031
0.258107
0.258171
0.258203
0.258199
0.258178
0.258124
0.258024
0.257865
0.257684
0.257504
0.257066
0.256855
0.269864
0.481177
0.643147
0.645293
0.639906
0.645722
0.650441
0.643138
0.634754
0.638712
0.645142
0.660301
0.680083
0.691226
0.698907
0.704236
0.695452
0.677307
0.674236
0.68101
0.691256
0.708842
0.982837
0.788984
0.792006
0.790443
0.783437
0.781062
0.786298
0.794466
0.802782
0.808807
0.804789
0.800427
0.805969
0.814968
0.828722
0.838013
0.843328
0.837762
0.833179
0.84116
0.854036
0.87869
0.890191
0.898491
0.894495
0.875617
0.873006
0.876155
0.890372
0.906693
0.918911
0.929433
0.935881
0.942479
0.949377
0.959642
0.968578
0.969161
0.982709
0.731807
0.393173
0.151034
0.041589
0.00917156
0.00169002
0.000273191
3.75186e-05
4.25107e-06
3.30599e-07
1.27874e-08
1.92634e-11
)
;

boundaryField
{
    sides
    {
        type            calculated;
        value           nonuniform List<scalar> 2(0 1.12308);
    }
    empty
    {
        type            empty;
    }
}


// ************************************************************************* //
