/*--------------------------------*- C++ -*----------------------------------*\
| =========                 |                                                 |
| \\      /  F ield         | OpenFOAM: The Open Source CFD Toolbox           |
|  \\    /   O peration     | Version:  2412                                  |
|   \\  /    A nd           | Website:  www.openfoam.com                      |
|    \\/     M anipulation  |                                                 |
\*---------------------------------------------------------------------------*/
FoamFile
{
    version     2.0;
    format      ascii;
    arch        "LSB;label=32;scalar=64";
    class       volScalarField;
    location    "0.0256401";
    object      TTR;
}
// * * * * * * * * * * * * * * * * * * * * * * * * * * * * * * * * * * * * * //

dimensions      [0 0 0 1 0 0 0];

internalField   nonuniform List<scalar> 
100
(
232.731
232.745
232.612
232.621
232.462
232.49
232.336
232.53
232.188
232.756
231.756
233.232
231.014
233.919
230.247
234.346
229.874
234.181
229.997
233.654
230.377
232.976
230.757
232.37
230.977
231.822
231.001
231.406
230.931
231.093
230.793
230.826
230.605
230.494
230.249
229.999
229.714
229.588
229.441
229.364
229.546
229.814
229.091
228.529
229.434
231.436
232.653
233.057
234.556
234.374
233.338
233.294
233.399
232.183
231.936
233.188
232.663
229.947
231.029
236.273
236.024
226.249
225.106
239.791
245.121
234.387
211.79
310.815
297.522
296.907
322.179
277.495
333.894
288.953
314.488
310.595
297.323
323.251
296.905
312.87
308.277
301.454
308.457
306.404
306.566
312.825
301.057
296.742
296.162
321.454
366.412
407.715
418.11
430.521
423.261
428.083
419.37
423.593
420.138
422.382
)
;

boundaryField
{
    sides
    {
        type            zeroGradient;
    }
    empty
    {
        type            empty;
    }
}


// ************************************************************************* //
