/*--------------------------------*- C++ -*----------------------------------*\
| =========                 |                                                 |
| \\      /  F ield         | OpenFOAM: The Open Source CFD Toolbox           |
|  \\    /   O peration     | Version:  2412                                  |
|   \\  /    A nd           | Website:  www.openfoam.com                      |
|    \\/     M anipulation  |                                                 |
\*---------------------------------------------------------------------------*/
FoamFile
{
    version     2.0;
    format      ascii;
    arch        "LSB;label=32;scalar=64";
    class       volScalarField;
    location    "0.00699732";
    object      TTR;
}
// * * * * * * * * * * * * * * * * * * * * * * * * * * * * * * * * * * * * * //

dimensions      [0 0 0 1 0 0 0];

internalField   nonuniform List<scalar> 
100
(
300
300
300
300
300
300
300
300
300
300
300
300
300
300
300
300
300
300
300
300
300
300
300
300
300
299.967
299.421
296.956
292.792
288.758
285.356
282.338
279.416
276.675
273.578
271.444
267.047
267.532
258.863
264.961
252.012
257.624
251.052
251.012
243.741
242.733
245.73
244.448
232.893
222.683
230.79
247.321
246.3
222.583
212.309
230.52
254.044
247.611
222.334
214.116
230.258
251.371
249.562
227.165
208.733
208.548
226.512
254.866
281.634
301.408
313.65
319.856
321.905
321.889
322.227
322.408
322.705
323.792
323.674
323.163
323.21
322.876
317.447
292.92
248.29
240.017
240
240
240
240
240
240
240
240
240
240
240
240
240
240
)
;

boundaryField
{
    sides
    {
        type            zeroGradient;
    }
    empty
    {
        type            empty;
    }
}


// ************************************************************************* //
