/*--------------------------------*- C++ -*----------------------------------*\
| =========                 |                                                 |
| \\      /  F ield         | OpenFOAM: The Open Source CFD Toolbox           |
|  \\    /   O peration     | Version:  2412                                  |
|   \\  /    A nd           | Website:  www.openfoam.com                      |
|    \\/     M anipulation  |                                                 |
\*---------------------------------------------------------------------------*/
FoamFile
{
    version     2.0;
    format      ascii;
    arch        "LSB;label=32;scalar=64";
    class       volVectorField;
    location    "7.84367e-05";
    object      U;
}
// * * * * * * * * * * * * * * * * * * * * * * * * * * * * * * * * * * * * * //

dimensions      [0 1 -1 0 0 0 0];

internalField   nonuniform List<vector> 
1800
(
(2.9 5.32282e-15 0)
(2.9 6.97174e-14 0)
(2.9 -3.37594e-14 0)
(2.9 1.47119e-14 0)
(2.9 2.83518e-14 0)
(2.9 3.18882e-14 0)
(2.9 -7.66501e-15 0)
(2.9 -2.97727e-15 0)
(2.9 -1.11647e-14 0)
(2.9 2.4007e-14 0)
(2.9 2.10497e-14 0)
(2.9 3.05897e-14 0)
(2.9 5.41526e-16 0)
(2.9 -5.62151e-15 0)
(2.9 -2.60272e-14 0)
(2.9 -4.31379e-15 0)
(2.9 4.10034e-15 0)
(2.9 -2.71179e-14 0)
(2.9 -4.61213e-14 0)
(2.9 -1.99025e-14 0)
(2.9 -4.26324e-14 0)
(2.9 -2.93742e-14 0)
(2.9 -9.16392e-15 0)
(2.9 -1.45716e-14 0)
(2.9 1.20731e-14 0)
(2.9 -1.46761e-14 0)
(2.9 -1.76569e-14 0)
(2.9 -4.07429e-16 0)
(2.9 -6.27706e-16 0)
(2.9 -1.83692e-14 0)
(2.9 -5.08841e-15 0)
(2.9 -1.01981e-14 0)
(2.9 7.48105e-16 0)
(2.9 -1.62515e-14 0)
(2.9 -1.8384e-14 0)
(2.9 -4.26799e-14 0)
(2.9 -1.12037e-14 0)
(2.9 -7.6281e-15 0)
(2.9 -3.01449e-14 0)
(2.9 -4.21637e-14 0)
(2.9 -2.07133e-14 0)
(2.9 -1.71119e-14 0)
(2.9 -9.98063e-15 0)
(2.9 -1.4432e-14 0)
(2.9 -2.33529e-14 0)
(2.9 -2.00932e-14 0)
(2.9 -3.18356e-14 0)
(2.9 -2.10252e-14 0)
(2.9 -2.50811e-14 0)
(2.9 -3.56592e-14 0)
(2.9 -3.05113e-14 0)
(2.9 -1.22054e-14 0)
(2.9 -9.47571e-15 0)
(2.9 -4.85056e-14 0)
(2.9 7.23142e-16 0)
(2.9 -9.25287e-15 0)
(2.9 -8.58669e-15 0)
(2.9 -5.69447e-14 0)
(2.9 2.55134e-15 0)
(2.9 -9.88575e-15 0)
(2.9 1.45828e-14 0)
(2.9 3.80072e-15 0)
(2.9 -9.79515e-14 0)
(2.9 -4.55609e-15 0)
(2.9 -1.52631e-14 0)
(2.9 1.7462e-14 0)
(2.9 -1.31687e-14 0)
(2.9 2.40245e-16 0)
(2.9 -2.90237e-14 0)
(2.9 -1.9801e-14 0)
(2.9 9.66713e-15 0)
(2.9 2.41909e-15 0)
(2.9 -7.86386e-15 0)
(2.9 -2.81616e-15 0)
(2.9 1.56951e-14 0)
(2.9 4.73474e-14 0)
(2.9 2.31369e-14 0)
(2.9 -3.99594e-14 0)
(2.9 -7.15814e-14 0)
(2.9 -7.12402e-14 0)
(2.9 -5.94679e-14 0)
(2.9 -5.10712e-14 0)
(2.9 -1.39285e-14 0)
(2.9 1.72004e-14 0)
(2.9 -1.04938e-14 0)
(2.9 -6.05295e-14 0)
(2.9 -4.55827e-15 0)
(2.9 2.53722e-15 0)
(2.9 1.24087e-14 0)
(2.9 -6.96715e-14 0)
(2.9 -4.40073e-14 0)
(2.9 -3.10789e-14 0)
(2.9 -2.93512e-14 0)
(2.9 -5.03969e-14 0)
(2.9 -6.98294e-14 0)
(2.9 -8.74962e-14 0)
(2.9 -3.03908e-14 0)
(2.9 -2.10741e-14 0)
(2.9 -4.73526e-14 0)
(2.9 -8.94103e-14 0)
(2.9 -8.28952e-14 0)
(2.9 -6.21475e-14 0)
(2.9 -3.38728e-14 0)
(2.9 2.65195e-15 0)
(2.9 -7.76088e-14 0)
(2.9 -6.11704e-14 0)
(2.9 -1.22766e-13 0)
(2.9 -1.027e-13 0)
(2.9 -6.40877e-14 0)
(2.9 -9.79359e-14 0)
(2.9 -5.49747e-14 0)
(2.9 -1.71107e-14 0)
(2.9 -2.17712e-14 0)
(2.9 -6.45141e-14 0)
(2.9 -3.08188e-14 0)
(2.9 -2.99593e-14 0)
(2.9 -2.00305e-14 0)
(2.9 -4.6046e-14 0)
(2.9 7.1338e-16 0)
(2.9 -3.60604e-14 0)
(2.9 -1.69301e-14 0)
(2.9 -3.36551e-14 0)
(2.9 -7.23989e-14 0)
(2.9 -5.27391e-14 0)
(2.9 3.15406e-14 0)
(2.9 -1.53612e-14 0)
(2.9 -2.19509e-14 0)
(2.9 -7.93987e-16 0)
(2.9 3.19087e-14 0)
(2.9 2.00259e-14 0)
(2.9 7.38549e-14 0)
(2.9 2.35467e-16 0)
(2.9 5.67242e-14 0)
(2.9 2.44297e-14 0)
(2.9 6.07181e-14 0)
(2.9 8.09229e-14 0)
(2.9 7.06262e-14 0)
(2.9 5.56359e-15 0)
(2.9 -9.33911e-15 0)
(2.9 -1.06054e-14 0)
(2.9 -7.06466e-14 0)
(2.9 -5.75758e-14 0)
(2.9 9.07788e-15 0)
(2.9 -6.59413e-15 0)
(2.9 -1.87015e-14 0)
(2.9 -3.60549e-14 0)
(2.9 2.28698e-14 0)
(2.9 1.04726e-14 0)
(2.9 1.54614e-14 0)
(2.9 -2.90619e-14 0)
(2.9 -7.06046e-14 0)
(2.9 -7.77495e-14 0)
(2.9 -7.27434e-14 0)
(2.9 -4.99558e-14 0)
(2.9 -6.47164e-14 0)
(2.9 -3.29866e-14 0)
(2.9 -4.45885e-14 0)
(2.9 -6.62093e-14 0)
(2.9 -4.27139e-14 0)
(2.9 -3.62261e-14 0)
(2.9 -9.96493e-14 0)
(2.9 -9.02437e-14 0)
(2.9 -8.30577e-14 0)
(2.9 -4.10933e-14 0)
(2.9 -6.1051e-14 0)
(2.9 -9.35238e-14 0)
(2.9 -1.2564e-13 0)
(2.9 -9.95649e-14 0)
(2.9 -6.88692e-14 0)
(2.9 1.04138e-14 0)
(2.9 -3.61164e-14 0)
(2.9 -4.89405e-14 0)
(2.9 -3.31461e-14 0)
(2.9 -6.70049e-14 0)
(2.9 -2.32216e-14 0)
(2.9 -4.33459e-14 0)
(2.9 -3.01898e-14 0)
(2.9 -2.9459e-14 0)
(2.9 3.41187e-15 0)
(2.9 -4.82785e-15 0)
(2.9 -2.88414e-14 0)
(2.9 -5.54052e-14 0)
(2.9 -4.63238e-14 0)
(2.9 -4.88356e-14 0)
(2.9 -4.46818e-15 0)
(2.9 -4.14446e-15 0)
(2.9 -3.73552e-14 0)
(2.9 -4.07028e-14 0)
(2.9 1.33818e-14 0)
(2.9 3.3872e-14 0)
(2.9 3.93632e-14 0)
(2.9 1.06123e-14 0)
(2.9 -1.11633e-16 0)
(2.9 -1.08879e-14 0)
(2.9 1.3477e-14 0)
(2.9 4.52214e-14 0)
(2.9 4.31689e-14 0)
(2.9 9.21517e-15 0)
(2.9 1.21164e-14 0)
(2.9 -1.02389e-14 0)
(2.9 -4.35724e-14 0)
(2.9 -4.58787e-14 0)
(2.9 -1.14475e-14 0)
(2.9 1.63523e-14 0)
(2.9 -1.77682e-14 0)
(2.9 -1.22107e-14 0)
(2.9 -2.7366e-15 0)
(2.9 9.80445e-16 0)
(2.9 2.01587e-14 0)
(2.9 -3.44297e-15 0)
(2.9 -5.42304e-14 0)
(2.9 -5.82753e-14 0)
(2.9 -4.6955e-14 0)
(2.9 -6.48495e-14 0)
(2.9 -5.23226e-14 0)
(2.9 -3.28927e-14 0)
(2.9 -4.55631e-14 0)
(2.9 -3.43569e-14 0)
(2.9 -2.69963e-14 0)
(2.9 -4.50918e-14 0)
(2.9 -1.01809e-13 0)
(2.9 -3.69409e-14 0)
(2.9 -2.69653e-14 0)
(2.9 -1.40187e-14 0)
(2.9 -1.28146e-14 0)
(2.9 -4.14717e-14 0)
(2.9 -1.1983e-13 0)
(2.9 -6.24329e-14 0)
(2.9 -3.48184e-14 0)
(2.9 -7.99141e-15 0)
(2.9 -1.50371e-14 0)
(2.9 -5.64881e-14 0)
(2.9 -4.52551e-14 0)
(2.9 -5.62795e-14 0)
(2.9 -3.83448e-14 0)
(2.9 -3.61861e-14 0)
(2.9 -3.5667e-14 0)
(2.9 4.89331e-15 0)
(2.9 3.28602e-14 0)
(2.9 5.10204e-14 0)
(2.9 2.3489e-14 0)
(2.9 -8.03559e-14 0)
(2.9 -3.82016e-15 0)
(2.9 -4.98719e-14 0)
(2.9 -8.01444e-15 0)
(2.9 -2.81632e-14 0)
(2.9 3.85783e-14 0)
(2.9 2.37702e-15 0)
(2.9 1.09825e-14 0)
(2.9 7.63713e-14 0)
(2.9 2.78647e-14 0)
(2.9 -7.47146e-14 0)
(2.9 -3.78364e-14 0)
(2.9 -1.11945e-14 0)
(2.9 -7.27549e-14 0)
(2.9 -3.25872e-14 0)
(2.9 8.08489e-15 0)
(2.9 -2.7741e-14 0)
(2.9 -5.10895e-15 0)
(2.9 -8.7115e-14 0)
(2.9 -2.81445e-14 0)
(2.9 -5.40138e-14 0)
(2.9 -2.44988e-14 0)
(2.9 -2.40194e-14 0)
(2.9 -5.87031e-15 0)
(2.9 -1.49765e-14 0)
(2.9 2.81115e-14 0)
(2.9 -1.78634e-14 0)
(2.9 -5.51776e-15 0)
(2.9 3.19732e-14 0)
(2.9 -6.98565e-14 0)
(2.9 -6.27197e-14 0)
(2.9 -6.13161e-15 0)
(2.9 -3.2668e-14 0)
(2.9 -5.93471e-14 0)
(2.9 -5.59784e-14 0)
(2.9 -3.78803e-14 0)
(2.9 -3.68616e-14 0)
(2.9 1.48273e-14 0)
(2.9 -3.56116e-14 0)
(2.9 -5.25079e-15 0)
(2.9 2.93527e-14 0)
(2.9 4.82428e-14 0)
(2.9 8.40438e-14 0)
(2.9 6.0869e-14 0)
(2.9 2.13286e-14 0)
(2.9 -5.97253e-15 0)
(2.9 -5.04703e-14 0)
(2.9 1.81518e-14 0)
(2.9 9.05381e-15 0)
(2.9 2.0467e-14 0)
(2.9 6.94903e-15 0)
(2.9 -3.47038e-14 0)
(2.9 -4.37455e-14 0)
(2.9 -8.89356e-14 0)
(2.9 -6.12441e-14 0)
(2.9 -8.216e-15 0)
(2.9 7.73021e-14 0)
(2.9 8.46808e-14 0)
(2.9 3.87595e-14 0)
(2.9 1.33586e-15 0)
(2.9 -5.06881e-15 0)
(2.9 -2.2365e-14 0)
(2.9 -5.827e-14 0)
(2.9 -1.49863e-14 0)
(2.9 -4.06074e-14 0)
(2.9 -5.32548e-14 0)
(2.9 1.46009e-14 0)
(2.9 -9.40095e-15 0)
(2.9 7.28939e-14 0)
(2.9 3.7929e-15 0)
(2.9 6.91809e-15 0)
(2.9 4.43999e-14 0)
(2.9 -5.88087e-15 0)
(2.9 -2.39537e-14 0)
(2.9 -1.11816e-14 0)
(2.9 -2.47052e-15 0)
(2.9 -1.90382e-14 0)
(2.9 7.08589e-16 0)
(2.9 -2.22435e-14 0)
(2.9 -1.92815e-14 0)
(2.9 9.69699e-15 0)
(2.9 2.47604e-14 0)
(2.9 1.53734e-14 0)
(2.9 1.34308e-14 0)
(2.9 3.0911e-16 0)
(2.9 2.36228e-14 0)
(2.9 -1.786e-14 0)
(2.9 -2.88292e-14 0)
(2.9 5.99535e-14 0)
(2.9 -1.56557e-14 0)
(2.9 4.86721e-14 0)
(2.9 -1.3754e-15 0)
(2.9 -2.3691e-15 0)
(2.9 -3.56851e-14 0)
(2.9 -5.82707e-14 0)
(2.9 -3.93838e-14 0)
(2.9 5.79549e-14 0)
(2.9 1.46209e-14 0)
(2.9 -4.03547e-14 0)
(2.9 6.04121e-14 0)
(2.9 -8.91386e-15 0)
(2.9 2.51101e-14 0)
(2.9 1.76577e-14 0)
(2.9 2.26462e-14 0)
(2.9 1.24709e-14 0)
(2.9 -2.40258e-14 0)
(2.9 4.61863e-14 0)
(2.9 3.51759e-14 0)
(2.9 4.84259e-14 0)
(2.9 4.90806e-14 0)
(2.9 3.26368e-14 0)
(2.9 1.1233e-14 0)
(2.9 -1.73853e-14 0)
(2.9 -2.7015e-14 0)
(2.9 -1.24873e-14 0)
(2.9 3.40006e-15 0)
(2.9 5.3537e-14 0)
(2.9 4.48791e-14 0)
(2.9 -9.73094e-14 0)
(2.9 -6.43558e-16 0)
(2.9 5.34994e-14 0)
(2.9 6.7756e-15 0)
(2.9 -3.16657e-14 0)
(2.9 -9.47635e-15 0)
(2.9 -5.08866e-14 0)
(2.9 -3.49852e-14 0)
(2.9 -1.07045e-14 0)
(2.9 1.93032e-14 0)
(2.9 2.40088e-14 0)
(2.9 2.29506e-14 0)
(2.9 6.29121e-14 0)
(2.9 2.92049e-14 0)
(2.9 -1.78158e-14 0)
(2.9 -5.94838e-15 0)
(2.9 -5.55509e-14 0)
(2.9 -1.63423e-14 0)
(2.9 -3.96809e-14 0)
(2.9 3.31671e-14 0)
(2.9 3.77827e-14 0)
(2.9 2.60774e-14 0)
(2.9 1.28587e-14 0)
(2.9 6.30321e-15 0)
(2.9 -4.92066e-15 0)
(2.9 1.02939e-15 0)
(2.9 4.55471e-14 0)
(2.9 2.92832e-14 0)
(2.9 1.55905e-14 0)
(2.9 -8.33181e-14 0)
(2.9 5.08779e-15 0)
(2.9 1.8913e-14 0)
(2.9 6.19022e-14 0)
(2.9 2.33964e-14 0)
(2.9 -1.05627e-14 0)
(2.9 -2.60561e-14 0)
(2.9 -1.12408e-14 0)
(2.9 1.31722e-14 0)
(2.9 3.75164e-14 0)
(2.9 1.38171e-14 0)
(2.9 -2.80287e-14 0)
(2.9 4.96636e-14 0)
(2.9 -2.71218e-15 0)
(2.9 1.43656e-14 0)
(2.9 1.74631e-16 0)
(2.9 5.05237e-15 0)
(2.9 8.22592e-15 0)
(2.9 1.38471e-14 0)
(2.9 5.5524e-15 0)
(2.9 -2.30234e-14 0)
(2.9 3.95792e-15 0)
(2.9 -2.27387e-15 0)
(2.9 -4.26612e-15 0)
(2.9 2.87605e-14 0)
(2.9 -6.01623e-15 0)
(2.9 -5.60616e-15 0)
(2.9 3.70593e-14 0)
(2.9 -1.41341e-14 0)
(2.9 -1.50087e-14 0)
(2.9 -5.03723e-14 0)
(2.9 -1.01305e-13 0)
(2.9 -3.91822e-15 0)
(2.9 6.03568e-14 0)
(2.9 2.10876e-14 0)
(2.9 -1.81099e-15 0)
(2.9 3.97961e-15 0)
(2.9 -2.4483e-14 0)
(2.9 -5.70415e-15 0)
(2.9 -8.66734e-15 0)
(2.9 5.43196e-14 0)
(2.9 -4.36116e-15 0)
(2.9 -6.40701e-15 0)
(2.9 4.61851e-14 0)
(2.9 3.61639e-14 0)
(2.9 1.12266e-14 0)
(2.9 1.96556e-14 0)
(2.9 -3.24781e-14 0)
(2.9 7.83015e-15 0)
(2.9 -9.74885e-15 0)
(2.9 1.82314e-14 0)
(2.9 6.46352e-14 0)
(2.9 7.9593e-14 0)
(2.9 2.1394e-14 0)
(2.9 -1.51669e-14 0)
(2.9 1.84579e-14 0)
(2.9 6.8148e-15 0)
(2.9 2.43445e-14 0)
(2.9 3.60083e-14 0)
(2.9 1.53987e-14 0)
(2.9 7.6233e-16 0)
(2.9 4.09663e-14 0)
(2.9 2.3324e-14 0)
(2.9 3.5274e-14 0)
(2.9 4.39216e-14 0)
(2.9 3.32766e-14 0)
(2.9 2.66491e-14 0)
(2.9 2.79187e-14 0)
(2.9 7.81743e-14 0)
(2.9 2.4719e-14 0)
(2.9 -3.02304e-15 0)
(2.9 -6.67364e-14 0)
(2.9 7.57664e-14 0)
(2.9 1.13977e-13 0)
(2.9 3.88975e-14 0)
(2.9 -2.25436e-14 0)
(2.9 -7.76815e-15 0)
(2.9 -2.60034e-14 0)
(2.9 3.27912e-14 0)
(2.9 1.64655e-14 0)
(2.9 1.68183e-14 0)
(2.9 -5.49925e-15 0)
(2.9 1.95472e-14 0)
(2.9 3.07801e-14 0)
(2.9 5.57761e-14 0)
(2.9 2.12347e-14 0)
(2.9 7.6118e-15 0)
(2.9 2.54158e-14 0)
(2.9 -1.83682e-14 0)
(2.9 -3.96018e-14 0)
(2.9 -7.05075e-14 0)
(2.9 -1.11533e-13 0)
(2.9 -1.51136e-14 0)
(2.9 2.66476e-14 0)
(2.9 -5.35254e-15 0)
(2.9 -5.55292e-15 0)
(2.9 1.59863e-15 0)
(2.9 1.07801e-14 0)
(2.9 -1.38597e-15 0)
(2.9 -1.94572e-14 0)
(2.9 3.59993e-14 0)
(2.9 5.27832e-14 0)
(2.9 2.06753e-14 0)
(2.9 2.04419e-14 0)
(2.9 6.0379e-14 0)
(2.9 2.64376e-14 0)
(2.9 8.89613e-15 0)
(2.9 -6.10852e-15 0)
(2.9 -8.89416e-15 0)
(2.9 2.89458e-15 0)
(2.9 1.94176e-14 0)
(2.9 8.4984e-14 0)
(2.9 5.66954e-14 0)
(2.9 3.51521e-14 0)
(2.9 -1.97552e-14 0)
(2.9 1.93126e-14 0)
(2.9 4.77209e-14 0)
(2.9 3.02099e-14 0)
(2.9 1.55591e-14 0)
(2.9 1.31307e-14 0)
(2.9 4.94191e-14 0)
(2.9 3.07356e-14 0)
(2.9 3.29578e-14 0)
(2.9 -1.14423e-14 0)
(2.9 2.36245e-14 0)
(2.9 2.73798e-14 0)
(2.9 3.78743e-14 0)
(2.9 7.57147e-14 0)
(2.9 3.25256e-14 0)
(2.9 2.63879e-15 0)
(2.9 5.11586e-14 0)
(2.9 -3.87197e-14 0)
(2.9 6.4091e-14 0)
(2.9 8.48375e-14 0)
(2.9 1.5819e-14 0)
(2.9 -3.91898e-14 0)
(2.9 -3.43001e-14 0)
(2.9 -5.56226e-14 0)
(2.9 -2.60485e-14 0)
(2.9 3.40522e-14 0)
(2.9 9.38692e-14 0)
(2.9 1.26324e-14 0)
(2.9 3.43771e-14 0)
(2.9 9.11035e-14 0)
(2.9 2.46023e-14 0)
(2.9 4.34808e-14 0)
(2.9 1.94319e-14 0)
(2.9 2.25003e-14 0)
(2.9 3.83201e-14 0)
(2.9 -4.69444e-14 0)
(2.9 -7.0047e-14 0)
(2.9 -4.31474e-14 0)
(2.9 -3.80691e-14 0)
(2.9 -1.92222e-14 0)
(2.9 5.62115e-15 0)
(2.9 3.20346e-14 0)
(2.9 -6.21404e-16 0)
(2.9 3.99793e-14 0)
(2.9 1.92109e-14 0)
(2.9 -3.6312e-14 0)
(2.9 4.09445e-14 0)
(2.9 1.38963e-14 0)
(2.9 6.39231e-14 0)
(2.9 -1.01756e-14 0)
(2.9 -7.65594e-15 0)
(2.9 2.64021e-14 0)
(2.9 -4.24312e-14 0)
(2.9 -2.34254e-14 0)
(2.9 -1.67163e-14 0)
(2.9 6.08163e-14 0)
(2.9 2.16462e-14 0)
(2.9 3.98251e-15 0)
(2.9 4.6186e-14 0)
(2.9 6.64769e-14 0)
(2.9 -3.82418e-14 0)
(2.9 5.31483e-15 0)
(2.9 5.02876e-14 0)
(2.9 -2.68659e-14 0)
(2.9 -1.02146e-14 0)
(2.9 5.72585e-15 0)
(2.9 7.16064e-14 0)
(2.9 -2.65287e-14 0)
(2.9 -4.02773e-15 0)
(2.9 -7.61345e-14 0)
(2.9 -5.02008e-14 0)
(2.9 -2.78473e-14 0)
(2.9 2.25153e-15 0)
(2.9 8.8438e-14 0)
(2.9 3.28118e-14 0)
(2.9 -1.19179e-14 0)
(2.9 2.99065e-14 0)
(2.9 -1.10065e-15 0)
(2.9 1.22197e-14 0)
(2.9 6.54208e-14 0)
(2.9 5.44564e-16 0)
(2.9 -8.27526e-14 0)
(2.9 -9.09769e-14 0)
(2.9 -3.64684e-14 0)
(2.9 1.16948e-14 0)
(2.9 1.11521e-14 0)
(2.9 4.00978e-14 0)
(2.9 -5.59769e-15 0)
(2.9 6.93066e-15 0)
(2.9 4.27602e-14 0)
(2.9 -5.7926e-15 0)
(2.9 1.80534e-14 0)
(2.9 6.64701e-15 0)
(2.9 1.45677e-14 0)
(2.9 6.35896e-14 0)
(2.9 8.84357e-15 0)
(2.9 -8.62741e-15 0)
(2.9 3.04185e-14 0)
(2.9 -2.83508e-14 0)
(2.9 -3.41069e-14 0)
(2.9 3.21579e-14 0)
(2.9 7.90131e-14 0)
(2.9 5.02557e-15 0)
(2.9 8.7702e-14 0)
(2.9 8.30265e-14 0)
(2.9 3.43235e-14 0)
(2.9 -2.01004e-14 0)
(2.9 9.36305e-15 0)
(2.9 -3.12845e-14 0)
(2.9 -7.65417e-14 0)
(2.9 -1.09831e-13 0)
(2.9 -6.75727e-14 0)
(2.9 3.95494e-14 0)
(2.9 1.94392e-14 0)
(2.9 1.66731e-14 0)
(2.9 4.79216e-14 0)
(2.9 4.42654e-14 0)
(2.9 -5.48641e-15 0)
(2.9 5.30376e-14 0)
(2.9 2.60649e-14 0)
(2.9 4.51121e-14 0)
(2.9 -1.54143e-14 0)
(2.9 1.2722e-14 0)
(2.9 4.79881e-14 0)
(2.9 -5.6943e-15 0)
(2.9 -3.29059e-15 0)
(2.9 5.86458e-14 0)
(2.9 7.1218e-15 0)
(2.9 -2.13227e-14 0)
(2.9 -3.78349e-14 0)
(2.9 -4.27078e-14 0)
(2.9 -6.32653e-14 0)
(2.9 5.15259e-14 0)
(2.9 6.39713e-14 0)
(2.9 1.22602e-14 0)
(2.9 -2.06212e-14 0)
(2.9 1.9633e-15 0)
(2.9 2.46981e-14 0)
(2.9 -2.00409e-14 0)
(2.9 4.98548e-15 0)
(2.9 3.09762e-14 0)
(2.9 -8.18644e-14 0)
(2.9 -2.67633e-14 0)
(2.9 5.95776e-14 0)
(2.9 1.16338e-13 0)
(2.9 1.78939e-14 0)
(2.9 -1.69076e-14 0)
(2.9 4.37793e-15 0)
(2.9 -1.82666e-14 0)
(2.9 -1.89277e-14 0)
(2.9 2.35011e-14 0)
(2.9 2.99853e-14 0)
(2.9 4.55603e-14 0)
(2.9 5.13991e-14 0)
(2.9 2.53526e-14 0)
(2.9 1.04059e-13 0)
(2.9 5.27872e-14 0)
(2.9 9.46301e-14 0)
(2.9 2.58644e-14 0)
(2.9 -4.06814e-14 0)
(2.9 9.28379e-14 0)
(2.9 1.79013e-14 0)
(2.9 5.3376e-14 0)
(2.9 -2.55557e-14 0)
(2.9 2.82086e-14 0)
(2.9 -2.48392e-14 0)
(2.9 1.17831e-14 0)
(2.9 -3.68185e-14 0)
(2.9 -2.03613e-14 0)
(2.9 -2.10357e-14 0)
(2.9 -7.00977e-14 0)
(2.9 -2.20885e-14 0)
(2.9 -7.76059e-15 0)
(2.9 2.85313e-14 0)
(2.9 5.71784e-14 0)
(2.9 7.52892e-14 0)
(2.9 2.78023e-14 0)
(2.9 2.48909e-14 0)
(2.9 1.16041e-14 0)
(2.9 7.36291e-14 0)
(2.9 -1.23201e-14 0)
(2.9 -5.07799e-15 0)
(2.9 -2.55555e-14 0)
(2.9 2.76714e-14 0)
(2.9 -2.46776e-14 0)
(2.9 -1.86065e-14 0)
(2.9 2.88214e-14 0)
(2.9 4.05334e-15 0)
(2.9 -8.89365e-15 0)
(2.9 -1.64141e-14 0)
(2.9 7.3969e-15 0)
(2.9 2.93298e-14 0)
(2.9 3.2886e-14 0)
(2.9 2.40271e-15 0)
(2.9 7.61951e-16 0)
(2.9 3.51105e-14 0)
(2.9 -1.40631e-14 0)
(2.9 5.45053e-14 0)
(2.9 -2.77922e-14 0)
(2.9 -1.97156e-14 0)
(2.9 1.89955e-14 0)
(2.9 2.6717e-14 0)
(2.9 4.63843e-14 0)
(2.9 2.24741e-14 0)
(2.9 5.01845e-14 0)
(2.9 5.75786e-14 0)
(2.9 1.62426e-14 0)
(2.9 5.58174e-14 0)
(2.9 9.54728e-15 0)
(2.9 8.5127e-15 0)
(2.9 1.21215e-14 0)
(2.9 2.19559e-14 0)
(2.9 4.2286e-14 0)
(2.9 1.76211e-14 0)
(2.9 2.58662e-14 0)
(2.9 6.5757e-14 0)
(2.9 -2.26257e-14 0)
(2.9 4.3255e-14 0)
(2.9 3.99361e-15 0)
(2.9 -1.72567e-14 0)
(2.9 5.28906e-14 0)
(2.9 4.40515e-15 0)
(2.9 -7.26171e-15 0)
(2.9 1.61816e-14 0)
(2.9 -7.048e-16 0)
(2.9 -2.01604e-14 0)
(2.9 1.02069e-14 0)
(2.9 -5.0805e-14 0)
(2.9 1.85488e-14 0)
(2.9 2.55579e-14 0)
(2.9 6.72129e-14 0)
(2.9 3.4102e-14 0)
(2.9 -9.82423e-14 0)
(2.9 -1.59458e-14 0)
(2.9 2.22245e-14 0)
(2.9 2.76731e-14 0)
(2.9 2.74304e-15 0)
(2.9 -1.78211e-15 0)
(2.9 -1.03576e-14 0)
(2.9 2.78421e-14 0)
(2.9 1.22245e-14 0)
(2.9 -1.30863e-14 0)
(2.9 -8.43906e-14 0)
(2.9 1.32458e-15 0)
(2.9 -2.77656e-14 0)
(2.9 -1.21615e-14 0)
(2.9 5.84185e-15 0)
(2.9 -8.23045e-15 0)
(2.9 -1.19206e-14 0)
(2.9 -1.10937e-15 0)
(2.9 6.29696e-15 0)
(2.9 2.84298e-14 0)
(2.9 -2.05642e-14 0)
(2.9 -6.19606e-15 0)
(2.9 -5.15012e-15 0)
(2.9 1.15476e-14 0)
(2.9 -4.66829e-14 0)
(2.9 -8.10076e-15 0)
(2.9 -4.1493e-14 0)
(2.9 -4.45126e-14 0)
(2.9 6.00513e-15 0)
(2.9 8.39012e-14 0)
(2.9 2.3662e-14 0)
(2.9 2.79121e-14 0)
(2.9 2.81365e-14 0)
(2.9 1.25769e-15 0)
(2.9 -1.59397e-14 0)
(2.9 -1.03159e-14 0)
(2.9 1.01371e-15 0)
(2.9 -4.45616e-15 0)
(2.9 -1.97076e-14 0)
(2.9 1.21863e-14 0)
(2.9 -6.85053e-15 0)
(2.9 -2.04083e-14 0)
(2.9 -2.41609e-14 0)
(2.9 -3.33396e-14 0)
(2.9 -1.75898e-14 0)
(2.9 -2.97312e-14 0)
(2.9 -8.79147e-15 0)
(2.9 -1.14858e-14 0)
(2.9 1.19556e-14 0)
(2.9 5.68939e-14 0)
(2.9 -4.74181e-14 0)
(2.9 2.23228e-14 0)
(2.9 -3.2832e-14 0)
(2.9 -4.69377e-14 0)
(2.9 -1.83059e-15 0)
(2.9 -1.91777e-14 0)
(2.9 2.63525e-14 0)
(2.9 6.3424e-14 0)
(2.9 7.5067e-14 0)
(2.9 1.48677e-14 0)
(2.9 -5.08681e-14 0)
(2.9 -6.14432e-14 0)
(2.9 -4.3634e-14 0)
(2.9 4.91596e-15 0)
(2.9 -4.73111e-14 0)
(2.9 -3.58143e-14 0)
(2.9 -2.19395e-14 0)
(2.9 3.96397e-14 0)
(2.9 4.53756e-14 0)
(2.9 1.51768e-14 0)
(2.9 -3.11424e-14 0)
(2.9 -4.98639e-15 0)
(2.9 1.9722e-15 0)
(2.9 2.18553e-14 0)
(2.9 5.37134e-14 0)
(2.9 3.49171e-14 0)
(2.9 -2.58364e-15 0)
(2.9 6.02397e-14 0)
(2.9 1.80465e-14 0)
(2.9 6.43958e-14 0)
(2.9 -3.04518e-14 0)
(2.9 -1.97461e-14 0)
(2.9 9.98929e-15 0)
(2.9 -5.54883e-14 0)
(2.9 -2.1438e-14 0)
(2.9 -7.88611e-14 0)
(2.9 -8.35579e-14 0)
(2.9 -3.25485e-14 0)
(2.9 -7.16591e-16 0)
(2.9 1.00252e-13 0)
(2.9 9.19312e-14 0)
(2.9 1.06033e-13 0)
(2.9 3.45471e-14 0)
(2.9 -1.28045e-14 0)
(2.9 -5.26986e-14 0)
(2.9 -2.55616e-15 0)
(2.9 -5.4122e-14 0)
(2.9 -1.15327e-15 0)
(2.9 4.61093e-14 0)
(2.9 2.83756e-14 0)
(2.9 -1.2091e-14 0)
(2.9 -5.09002e-16 0)
(2.9 -2.8593e-14 0)
(2.9 -4.79181e-14 0)
(2.9 5.28328e-16 0)
(2.9 -2.01343e-14 0)
(2.9 -2.62339e-14 0)
(2.9 -2.34775e-16 0)
(2.9 -2.3609e-14 0)
(2.9 -7.8817e-15 0)
(2.9 2.19306e-14 0)
(2.9 2.95002e-15 0)
(2.9 3.16974e-14 0)
(2.9 5.95006e-15 0)
(2.9 1.05243e-16 0)
(2.9 9.93809e-15 0)
(2.9 1.44106e-14 0)
(2.9 4.58528e-14 0)
(2.9 3.00083e-15 0)
(2.9 -1.38854e-15 0)
(2.9 -1.78373e-14 0)
(2.9 6.62691e-15 0)
(2.9 -5.76165e-14 0)
(2.9 9.8173e-15 0)
(2.9 -4.43364e-14 0)
(2.9 4.82846e-14 0)
(2.9 -3.42451e-14 0)
(2.9 4.17486e-15 0)
(2.9 4.60166e-14 0)
(2.9 4.53729e-14 0)
(2.9 6.5074e-14 0)
(2.9 2.33216e-15 0)
(2.9 -2.60387e-14 0)
(2.9 1.90062e-14 0)
(2.9 1.64162e-14 0)
(2.9 1.04381e-14 0)
(2.9 7.44048e-15 0)
(2.9 -1.17274e-14 0)
(2.9 1.5431e-14 0)
(2.9 3.72206e-14 0)
(2.9 2.76064e-14 0)
(2.9 -1.02446e-14 0)
(2.9 -4.24089e-16 0)
(2.9 -2.99487e-14 0)
(2.9 -7.55591e-15 0)
(2.9 -2.72035e-14 0)
(2.9 -3.21676e-14 0)
(2.9 -2.40675e-14 0)
(2.9 6.89704e-15 0)
(2.9 7.13483e-14 0)
(2.9 1.12228e-13 0)
(2.9 9.67699e-14 0)
(2.9 3.67522e-14 0)
(2.9 -1.08129e-14 0)
(2.9 -3.69678e-14 0)
(2.9 -1.7648e-14 0)
(2.9 -1.46545e-14 0)
(2.9 -3.4431e-14 0)
(2.9 5.60267e-15 0)
(2.9 3.71728e-14 0)
(2.9 5.05549e-14 0)
(2.9 4.41819e-14 0)
(2.9 -3.13399e-14 0)
(2.9 -3.89958e-14 0)
(2.9 -2.30564e-14 0)
(2.9 1.05552e-14 0)
(2.9 -4.36724e-14 0)
(2.9 4.90896e-14 0)
(2.9 -6.88522e-14 0)
(2.9 -5.07897e-14 0)
(2.9 8.92768e-14 0)
(2.9 3.26271e-14 0)
(2.9 2.37992e-14 0)
(2.9 7.23897e-14 0)
(2.9 -2.05568e-15 0)
(2.9 2.09447e-14 0)
(2.9 6.09573e-15 0)
(2.9 7.3872e-14 0)
(2.9 1.22445e-14 0)
(2.9 5.91975e-15 0)
(2.9 -1.69355e-14 0)
(2.9 1.98467e-14 0)
(2.9 -4.06445e-14 0)
(2.9 -2.36474e-14 0)
(2.9 -4.3951e-14 0)
(2.9 3.9732e-14 0)
(2.9 -6.46527e-14 0)
(2.9 -8.57409e-14 0)
(2.9 -3.21912e-14 0)
(2.9 -8.87278e-15 0)
(2.9 3.576e-14 0)
(2.9 3.56968e-15 0)
(2.9 -4.63639e-14 0)
(2.9 -5.87474e-15 0)
(2.9 -6.6357e-14 0)
(2.9 -4.61909e-14 0)
(2.9 -1.68811e-14 0)
(2.9 -6.88346e-14 0)
(2.9 -1.1789e-14 0)
(2.9 -3.53591e-14 0)
(2.9 -2.84078e-14 0)
(2.9 -5.29389e-14 0)
(2.9 -4.08556e-14 0)
(2.9 -1.48783e-14 0)
(2.9 -3.22556e-14 0)
(2.9 1.50012e-14 0)
(2.9 8.52532e-14 0)
(2.9 -4.13963e-14 0)
(2.9 -4.03887e-15 0)
(2.9 5.21432e-14 0)
(2.9 7.00858e-14 0)
(2.9 5.30696e-14 0)
(2.9 4.31638e-14 0)
(2.9 -1.83058e-14 0)
(2.9 -8.51334e-14 0)
(2.9 -3.25087e-14 0)
(2.9 -1.541e-14 0)
(2.9 -8.37494e-14 0)
(2.9 -6.08803e-14 0)
(2.9 -3.69248e-14 0)
(2.9 3.38339e-14 0)
(2.9 4.54881e-14 0)
(2.9 -3.62954e-14 0)
(2.9 -1.2301e-14 0)
(2.9 9.27238e-16 0)
(2.9 5.5636e-15 0)
(2.9 1.25606e-15 0)
(2.9 1.08202e-13 0)
(2.9 -1.96348e-15 0)
(2.9 5.86027e-14 0)
(2.9 3.54814e-15 0)
(2.9 -2.92405e-14 0)
(2.9 -2.59577e-15 0)
(2.9 2.34376e-14 0)
(2.9 -7.21736e-14 0)
(2.9 -2.55339e-14 0)
(2.9 -8.21358e-15 0)
(2.9 3.68767e-15 0)
(2.9 7.42099e-14 0)
(2.9 4.77747e-14 0)
(2.9 -1.49792e-14 0)
(2.9 -8.69105e-15 0)
(2.9 3.23185e-14 0)
(2.9 -2.64776e-14 0)
(2.9 -1.5952e-14 0)
(2.9 -3.68054e-14 0)
(2.9 -9.70743e-14 0)
(2.9 -1.13145e-13 0)
(2.9 -5.7852e-14 0)
(2.9 5.25175e-15 0)
(2.9 8.82043e-15 0)
(2.9 4.4747e-14 0)
(2.9 1.31995e-14 0)
(2.9 -5.47698e-15 0)
(2.9 -9.66047e-14 0)
(2.9 -6.77214e-14 0)
(2.9 -5.25966e-14 0)
(2.9 1.99896e-14 0)
(2.9 7.98719e-16 0)
(2.9 -1.82526e-14 0)
(2.9 -2.73493e-14 0)
(2.9 -1.95419e-14 0)
(2.9 -3.61921e-14 0)
(2.9 1.27683e-14 0)
(2.9 -7.64877e-14 0)
(2.9 -2.19864e-14 0)
(2.9 7.93393e-14 0)
(2.9 -1.21624e-14 0)
(2.9 5.83063e-15 0)
(2.9 1.56694e-14 0)
(2.9 2.16715e-14 0)
(2.9 2.15374e-14 0)
(2.9 1.46056e-14 0)
(2.9 -1.44685e-14 0)
(2.9 -5.13013e-14 0)
(2.9 -1.42399e-14 0)
(2.9 -4.37844e-16 0)
(2.9 -3.48003e-14 0)
(2.9 2.55751e-14 0)
(2.9 -3.04841e-14 0)
(2.9 3.02906e-15 0)
(2.9 -3.79823e-14 0)
(2.9 -8.59558e-14 0)
(2.9 2.64836e-14 0)
(2.9 7.28785e-14 0)
(2.9 5.11227e-15 0)
(2.9 -2.5764e-16 0)
(2.9 3.24095e-14 0)
(2.9 -7.03767e-15 0)
(2.9 7.3322e-14 0)
(2.9 1.10675e-14 0)
(2.9 -3.23664e-14 0)
(2.9 -8.03585e-15 0)
(2.9 -3.43138e-15 0)
(2.9 -7.49296e-14 0)
(2.9 -4.26844e-14 0)
(2.9 1.06473e-14 0)
(2.9 -4.15924e-14 0)
(2.9 2.5381e-14 0)
(2.9 1.47395e-14 0)
(2.9 2.60659e-14 0)
(2.9 -2.36003e-14 0)
(2.9 1.96709e-14 0)
(2.9 1.81374e-14 0)
(2.9 2.01184e-14 0)
(2.9 4.17409e-15 0)
(2.9 -4.72985e-14 0)
(2.9 -3.54318e-14 0)
(2.9 -8.87005e-15 0)
(2.9 -4.64636e-15 0)
(2.9 1.91513e-14 0)
(2.9 2.37354e-14 0)
(2.9 1.53591e-14 0)
(2.9 -1.84825e-15 0)
(2.9 -5.31163e-14 0)
(2.9 -1.98954e-14 0)
(2.9 -4.31991e-14 0)
(2.9 2.29282e-14 0)
(2.9 -6.04627e-15 0)
(2.9 -4.88353e-15 0)
(2.9 4.49694e-16 0)
(2.9 -2.18681e-14 0)
(2.9 -1.47377e-14 0)
(2.9 -4.98134e-15 0)
(2.9 -6.10404e-14 0)
(2.9 5.69206e-14 0)
(2.9 5.3359e-14 0)
(2.9 3.01912e-15 0)
(2.9 -2.60305e-14 0)
(2.9 -3.26213e-14 0)
(2.9 -2.05373e-14 0)
(2.9 -3.43935e-14 0)
(2.9 -2.49169e-14 0)
(2.9 -8.4029e-15 0)
(2.9 3.18101e-16 0)
(2.9 -2.06862e-15 0)
(2.9 2.89701e-15 0)
(2.9 3.40161e-14 0)
(2.9 -7.99554e-15 0)
(2.9 3.1261e-14 0)
(2.9 1.96655e-14 0)
(2.9 -2.51246e-14 0)
(2.9 -9.2962e-15 0)
(2.9 4.84914e-14 0)
(2.9 6.97664e-14 0)
(2.9 2.89926e-14 0)
(2.9 -5.34715e-15 0)
(2.9 -1.63359e-14 0)
(2.9 1.5907e-14 0)
(2.9 1.05115e-14 0)
(2.9 2.44837e-14 0)
(2.9 3.72561e-14 0)
(2.9 -2.30483e-14 0)
(2.9 -2.94721e-14 0)
(2.9 -3.32286e-14 0)
(2.9 -3.21577e-14 0)
(2.9 1.83222e-14 0)
(2.9 -6.78911e-15 0)
(2.9 3.27226e-15 0)
(2.9 -3.48878e-15 0)
(2.9 -3.96521e-14 0)
(2.9 -3.19124e-14 0)
(2.9 1.24436e-14 0)
(2.9 -5.19174e-15 0)
(2.9 9.39042e-15 0)
(2.9 -3.21297e-14 0)
(2.9 2.96571e-14 0)
(2.9 1.43105e-14 0)
(2.9 -5.38505e-14 0)
(2.9 -5.09112e-14 0)
(2.9 1.95795e-15 0)
(2.9 1.26382e-14 0)
(2.9 2.23368e-14 0)
(2.9 3.07837e-16 0)
(2.9 -1.86484e-14 0)
(2.9 -6.34187e-15 0)
(2.9 2.04955e-14 0)
(2.9 7.33849e-16 0)
(2.9 1.5952e-14 0)
(2.9 -7.66939e-15 0)
(2.9 -3.92054e-14 0)
(2.9 -5.13104e-14 0)
(2.9 -2.25139e-14 0)
(2.9 -5.36754e-15 0)
(2.9 2.04414e-14 0)
(2.9 7.79988e-14 0)
(2.9 1.75847e-14 0)
(2.9 -1.33495e-15 0)
(2.9 -3.0488e-14 0)
(2.9 -7.29786e-14 0)
(2.9 -1.4516e-14 0)
(2.9 -8.6854e-14 0)
(2.9 -5.54092e-14 0)
(2.9 1.19331e-14 0)
(2.9 3.39626e-14 0)
(2.9 8.87831e-15 0)
(2.9 -1.19286e-14 0)
(2.9 -3.54549e-14 0)
(2.9 -3.84708e-14 0)
(2.9 1.34569e-14 0)
(2.9 -2.87698e-14 0)
(2.9 -4.12645e-14 0)
(2.9 4.5157e-14 0)
(2.9 9.7362e-15 0)
(2.9 1.1363e-14 0)
(2.9 4.43179e-14 0)
(2.9 1.95848e-14 0)
(2.9 -4.2365e-14 0)
(2.9 4.6628e-14 0)
(2.9 1.96177e-14 0)
(2.9 -1.56664e-14 0)
(2.9 1.13097e-14 0)
(2.9 5.34315e-14 0)
(2.9 6.08544e-14 0)
(2.9 1.91681e-14 0)
(2.9 5.80457e-14 0)
(2.9 8.71673e-15 0)
(2.9 4.26924e-15 0)
(2.9 -1.27205e-15 0)
(2.9 -1.1767e-14 0)
(2.9 -2.47562e-14 0)
(2.9 6.40849e-14 0)
(2.9 4.31362e-14 0)
(2.9 2.92e-14 0)
(2.9 1.56853e-15 0)
(2.9 -2.70311e-14 0)
(2.9 4.4024e-14 0)
(2.9 1.28365e-14 0)
(2.9 -8.81616e-14 0)
(2.9 -4.12836e-14 0)
(2.9 -4.59051e-14 0)
(2.9 5.01943e-15 0)
(2.9 2.04416e-14 0)
(2.9 -1.02765e-14 0)
(2.9 -2.14751e-14 0)
(2.9 4.93811e-15 0)
(2.9 1.0567e-13 0)
(2.9 2.62136e-14 0)
(2.9 -1.4519e-14 0)
(2.9 -4.33569e-14 0)
(2.9 -7.17323e-14 0)
(2.9 -6.90594e-14 0)
(2.9 -2.59876e-14 0)
(2.9 7.9022e-16 0)
(2.9 8.83771e-14 0)
(2.9 4.06297e-14 0)
(2.9 -5.01843e-14 0)
(2.9 2.19587e-14 0)
(2.9 -3.89197e-14 0)
(2.9 -7.07873e-14 0)
(2.9 -4.99144e-15 0)
(2.9 -8.0218e-14 0)
(2.9 -6.58528e-14 0)
(2.9 -9.68153e-15 0)
(2.9 1.17437e-13 0)
(2.9 3.19771e-14 0)
(2.9 4.00815e-14 0)
(2.9 -8.06156e-14 0)
(2.9 -9.67431e-14 0)
(2.9 -2.50227e-14 0)
(2.9 -6.7044e-14 0)
(2.9 -1.52875e-14 0)
(2.9 3.19567e-14 0)
(2.9 -4.37091e-14 0)
(2.9 -2.05774e-14 0)
(2.9 7.97851e-14 0)
(2.9 6.94479e-14 0)
(2.9 -6.10916e-15 0)
(2.9 -3.4253e-14 0)
(2.9 -2.87119e-14 0)
(2.9 -2.63979e-14 0)
(2.9 -5.03042e-14 0)
(2.9 3.68272e-14 0)
(2.9 2.66586e-14 0)
(2.9 6.52058e-14 0)
(2.9 6.35595e-14 0)
(2.9 -6.63018e-14 0)
(2.9 -9.22465e-15 0)
(2.9 -3.80922e-14 0)
(2.9 -2.04845e-14 0)
(2.9 3.08038e-14 0)
(2.9 2.18826e-14 0)
(2.9 -2.64396e-14 0)
(2.9 4.62713e-14 0)
(2.9 -1.96211e-14 0)
(2.9 -2.13247e-14 0)
(2.9 4.56587e-15 0)
(2.9 -3.85814e-14 0)
(2.9 -2.75172e-14 0)
(2.9 -7.4956e-16 0)
(2.9 -3.92169e-15 0)
(2.9 2.61143e-14 0)
(2.9 7.79653e-16 0)
(2.9 -4.49804e-15 0)
(2.9 4.43321e-14 0)
(2.9 6.55755e-14 0)
(2.9 4.16112e-14 0)
(2.9 1.09657e-15 0)
(2.9 1.76316e-14 0)
(2.9 -4.13791e-14 0)
(2.9 -9.63144e-14 0)
(2.9 -2.04984e-14 0)
(2.9 -1.3788e-14 0)
(2.9 -5.6129e-14 0)
(2.9 3.2823e-14 0)
(2.9 1.07843e-14 0)
(2.9 -4.54359e-14 0)
(2.9 -1.2164e-14 0)
(2.9 -5.56449e-15 0)
(2.9 -3.87539e-14 0)
(2.9 -1.26859e-14 0)
(2.9 1.43241e-14 0)
(2.9 -2.37307e-14 0)
(2.9 2.5446e-14 0)
(2.9 6.12211e-14 0)
(2.9 1.39562e-15 0)
(2.9 3.1055e-14 0)
(2.9 -3.05328e-14 0)
(2.9 -5.74768e-14 0)
(2.9 -2.47438e-14 0)
(2.9 2.55959e-14 0)
(2.9 2.13537e-14 0)
(2.9 5.43176e-14 0)
(2.9 2.61539e-14 0)
(2.9 1.34129e-14 0)
(2.9 3.68066e-14 0)
(2.9 2.23696e-14 0)
(2.9 -2.20446e-14 0)
(2.9 1.80561e-14 0)
(2.9 1.76928e-15 0)
(2.9 4.36001e-14 0)
(2.9 1.06642e-15 0)
(2.9 6.09764e-15 0)
(2.9 9.90471e-16 0)
(2.9 9.03024e-14 0)
(2.9 4.88951e-15 0)
(2.9 -4.2288e-14 0)
(2.9 3.34342e-14 0)
(2.9 -2.69985e-14 0)
(2.9 -4.72831e-14 0)
(2.9 8.88784e-14 0)
(2.9 1.2027e-14 0)
(2.9 -2.5578e-14 0)
(2.9 2.96882e-14 0)
(2.9 -5.13785e-15 0)
(2.9 -2.47851e-14 0)
(2.9 -2.27875e-14 0)
(2.9 -1.0556e-13 0)
(2.9 4.23299e-14 0)
(2.9 2.25899e-14 0)
(2.9 2.82701e-14 0)
(2.9 1.31731e-14 0)
(2.9 -2.76862e-14 0)
(2.9 7.18042e-15 0)
(2.9 1.1172e-13 0)
(2.9 6.3513e-14 0)
(2.9 3.49717e-14 0)
(2.9 -9.0797e-14 0)
(2.9 -5.00806e-14 0)
(2.9 -7.50217e-14 0)
(2.9 -4.01458e-14 0)
(2.9 -3.63951e-14 0)
(2.9 -2.42176e-14 0)
(2.9 -2.79371e-14 0)
(2.9 1.02749e-16 0)
(2.9 -8.50755e-15 0)
(2.9 -4.21901e-14 0)
(2.9 -1.7085e-14 0)
(2.9 1.38286e-14 0)
(2.9 -4.29895e-14 0)
(2.9 -2.80747e-14 0)
(2.9 3.8335e-14 0)
(2.9 -7.71502e-15 0)
(2.9 -2.58931e-15 0)
(2.9 4.26271e-14 0)
(2.9 -3.13266e-14 0)
(2.9 -1.99104e-14 0)
(2.9 -3.72514e-14 0)
(2.9 -9.53401e-14 0)
(2.9 -6.37896e-14 0)
(2.9 3.71302e-16 0)
(2.9 7.44985e-15 0)
(2.9 4.19128e-14 0)
(2.9 4.47285e-14 0)
(2.9 6.66227e-14 0)
(2.9 1.46002e-14 0)
(2.9 -5.62587e-14 0)
(2.9 4.1179e-14 0)
(2.9 6.00571e-14 0)
(2.9 7.88267e-14 0)
(2.9 3.07818e-14 0)
(2.9 8.90043e-15 0)
(2.9 -4.21673e-14 0)
(2.9 -1.34712e-14 0)
(2.9 4.00351e-14 0)
(2.9 6.59307e-15 0)
(2.9 5.03791e-14 0)
(2.9 -5.86774e-15 0)
(2.9 2.54206e-15 0)
(2.9 8.04074e-15 0)
(2.9 9.62129e-14 0)
(2.9 2.16433e-14 0)
(2.9 -1.97458e-14 0)
(2.9 1.29878e-14 0)
(2.9 -4.94866e-15 0)
(2.9 2.96925e-14 0)
(2.9 3.52453e-14 0)
(2.9 -1.06906e-14 0)
(2.9 -1.16237e-14 0)
(2.9 1.6525e-14 0)
(2.9 7.03966e-15 0)
(2.9 -2.0994e-14 0)
(2.9 -6.30706e-14 0)
(2.9 9.02847e-15 0)
(2.9 5.81722e-14 0)
(2.9 2.36715e-14 0)
(2.9 4.44965e-14 0)
(2.9 1.1445e-14 0)
(2.9 -5.40263e-14 0)
(2.9 4.44643e-14 0)
(2.9 2.10039e-14 0)
(2.9 2.61199e-15 0)
(2.9 -3.61546e-15 0)
(2.9 2.8883e-14 0)
(2.9 1.96022e-14 0)
(2.9 -1.48982e-14 0)
(2.9 -6.11225e-14 0)
(2.9 -8.42586e-14 0)
(2.9 3.23366e-14 0)
(2.9 -1.07242e-14 0)
(2.9 -5.00686e-14 0)
(2.9 -3.26611e-14 0)
(2.9 -2.37182e-15 0)
(2.9 -6.28198e-15 0)
(2.9 6.28998e-15 0)
(2.9 -5.6988e-14 0)
(2.9 -4.97937e-14 0)
(2.9 4.86803e-14 0)
(2.9 -4.46812e-14 0)
(2.9 -3.40386e-14 0)
(2.9 -4.77607e-14 0)
(2.9 -7.33655e-14 0)
(2.9 6.36461e-15 0)
(2.9 2.04431e-14 0)
(2.9 5.75072e-14 0)
(2.9 -1.90458e-14 0)
(2.9 -1.57336e-14 0)
(2.9 -4.04607e-14 0)
(2.9 -4.33082e-14 0)
(2.9 -6.24923e-15 0)
(2.9 3.34217e-14 0)
(2.9 5.72674e-15 0)
(2.9 4.1881e-14 0)
(2.9 4.95732e-14 0)
(2.9 -3.57491e-14 0)
(2.9 8.47051e-15 0)
(2.9 3.00554e-14 0)
(2.9 7.99462e-15 0)
(2.9 4.68469e-14 0)
(2.9 6.41034e-14 0)
(2.9 1.64475e-14 0)
(2.9 4.57077e-15 0)
(2.9 9.60082e-15 0)
(2.9 -3.12615e-14 0)
(2.9 4.01363e-14 0)
(2.9 1.22024e-14 0)
(2.9 2.40106e-14 0)
(2.9 7.55703e-14 0)
(2.9 -2.4651e-14 0)
(2.9 6.13133e-15 0)
(2.9 -4.37058e-15 0)
(2.9 -6.27689e-14 0)
(2.9 -5.45969e-14 0)
(2.9 -1.31057e-14 0)
(2.9 3.78029e-14 0)
(2.9 -9.86541e-15 0)
(2.9 4.73722e-16 0)
(2.9 5.39414e-14 0)
(2.9 2.17589e-14 0)
(2.9 5.40936e-14 0)
(2.9 9.92002e-14 0)
(2.9 4.43152e-14 0)
(2.9 1.45917e-14 0)
(2.9 6.24579e-15 0)
(2.9 2.63727e-15 0)
(2.9 -1.37851e-14 0)
(2.9 -2.83487e-14 0)
(2.9 -4.76776e-14 0)
(2.9 1.71047e-14 0)
(2.9 6.00204e-14 0)
(2.9 -3.52643e-14 0)