/*--------------------------------*- C++ -*----------------------------------*\
| =========                 |                                                 |
| \\      /  F ield         | OpenFOAM: The Open Source CFD Toolbox           |
|  \\    /   O peration     | Version:  2412                                  |
|   \\  /    A nd           | Website:  www.openfoam.com                      |
|    \\/     M anipulation  |                                                 |
\*---------------------------------------------------------------------------*/
FoamFile
{
    version     2.0;
    format      ascii;
    arch        "LSB;label=32;scalar=64";
    class       volScalarField;
    location    "0.0538573";
    object      p;
}
// * * * * * * * * * * * * * * * * * * * * * * * * * * * * * * * * * * * * * //

dimensions      [1 -1 -2 0 0 0 0];

internalField   nonuniform List<scalar> 
100
(
92352.1
93149.9
99452.9
99927.2
100892
97581.4
94849.4
90136.7
89329.7
88706.2
92022.5
96832.7
102436
101647
99064.1
94847.7
91090.1
92485.7
75927.7
45690.8
39680.2
40693.7
41428.4
42058.7
41845.3
41360
40501.5
41148.7
41923.7
47136
49289.8
50151.2
50202.1
50606.8
47805.2
42878.1
40528.2
40634.8
40888.5
41433.1
41739.1
42035.6
41671.9
41498.5
41736.7
42115
42518.8
43071.9
43818.3
44494.8
44971.9
45378.2
45546.6
44685.8
43239.5
42532.5
42504.7
42803.4
43200.5
43630.3
44177.1
44709.1
45153.2
45325.6
44912.2
44349.5
44147.2
44117.8
44270.8
44359.4
44453.9
44427.1
44378.4
44439.7
44284.5
44528.8
44193.8
44616.7
44259.3
44748.3
44428.2
44561.1
44670.9
44347.8
44847
44449.5
44846.9
44455.8
44772.5
44726.4
44679.5
44864
44590.5
44907.5
44529.6
44880.5
44537.7
44819.5
44666.7
44695.6
)
;

boundaryField
{
    sides
    {
        type            zeroGradient;
    }
    empty
    {
        type            empty;
    }
}


// ************************************************************************* //
