/*--------------------------------*- C++ -*----------------------------------*\
| =========                 |                                                 |
| \\      /  F ield         | OpenFOAM: The Open Source CFD Toolbox           |
|  \\    /   O peration     | Version:  2412                                  |
|   \\  /    A nd           | Website:  www.openfoam.com                      |
|    \\/     M anipulation  |                                                 |
\*---------------------------------------------------------------------------*/
FoamFile
{
    version     2.0;
    format      ascii;
    arch        "LSB;label=32;scalar=64";
    class       volVectorField;
    location    "0.0559053";
    object      U;
}
// * * * * * * * * * * * * * * * * * * * * * * * * * * * * * * * * * * * * * //

dimensions      [0 1 -1 0 0 0 0];

internalField   nonuniform List<vector> 
100
(
(16.6786 0 0)
(32.4535 0 0)
(35.0477 0 0)
(18.2794 0 0)
(-5.205 0 0)
(-17.8413 0 0)
(-14.9257 0 0)
(-3.9497 0 0)
(3.21468 0 0)
(6.22183 0 0)
(1.09757 0 0)
(-3.89827 0 0)
(-1.57793 0 0)
(0.0403819 0 0)
(-2.75571 0 0)
(-5.78459 0 0)
(-6.11158 0 0)
(-1.03244 0 0)
(2.24149 0 0)
(-13.44 0 0)
(-35.1033 0 0)
(-36.1561 0 0)
(-42.7225 0 0)
(-137.172 0 0)
(-214.511 0 0)
(-199.129 0 0)
(-192.091 0 0)
(-190.073 0 0)
(-190.468 0 0)
(-190.565 0 0)
(-189.711 0 0)
(-187.994 0 0)
(-183.339 0 0)
(-178.182 0 0)
(-175.748 0 0)
(-174.78 0 0)
(-173.619 0 0)
(-173.682 0 0)
(-175.187 0 0)
(-176.448 0 0)
(-175.951 0 0)
(-175.036 0 0)
(-173.687 0 0)
(-170.426 0 0)
(-159.264 0 0)
(-147.079 0 0)
(-141.986 0 0)
(-140.247 0 0)
(-139.541 0 0)
(-138.906 0 0)
(-138.637 0 0)
(-138.92 0 0)
(-138.971 0 0)
(-138.342 0 0)
(-136.699 0 0)
(-132.393 0 0)
(-124.961 0 0)
(-119.699 0 0)
(-116.576 0 0)
(-114.468 0 0)
(-112.607 0 0)
(-110.276 0 0)
(-107.491 0 0)
(-104.339 0 0)
(-101.181 0 0)
(-98.1468 0 0)
(-95.1912 0 0)
(-92.2911 0 0)
(-89.3775 0 0)
(-86.6254 0 0)
(-84.066 0 0)
(-81.5385 0 0)
(-79.0577 0 0)
(-76.1718 0 0)
(-73.46 0 0)
(-69.9466 0 0)
(-67.0367 0 0)
(-63.818 0 0)
(-60.8496 0 0)
(-58.1311 0 0)
(-55.4997 0 0)
(-53.2292 0 0)
(-50.1093 0 0)
(-48.1243 0 0)
(-45.065 0 0)
(-42.0889 0 0)
(-39.1005 0 0)
(-35.8029 0 0)
(-32.9944 0 0)
(-29.4278 0 0)
(-26.7803 0 0)
(-23.663 0 0)
(-21.481 0 0)
(-18.8148 0 0)
(-16.1558 0 0)
(-13.2069 0 0)
(-9.9272 0 0)
(-7.07511 0 0)
(-3.85624 0 0)
(-1.63635 0 0)
)
;

boundaryField
{
    sides
    {
        type            fixedValue;
        value           uniform (0 0 0);
    }
    empty
    {
        type            empty;
    }
}


// ************************************************************************* //
