/*--------------------------------*- C++ -*----------------------------------*\
| =========                 |                                                 |
| \\      /  F ield         | OpenFOAM: The Open Source CFD Toolbox           |
|  \\    /   O peration     | Version:  2412                                  |
|   \\  /    A nd           | Website:  www.openfoam.com                      |
|    \\/     M anipulation  |                                                 |
\*---------------------------------------------------------------------------*/
FoamFile
{
    version     2.0;
    format      ascii;
    arch        "LSB;label=32;scalar=64";
    class       volVectorField;
    location    "0.0231739";
    object      U;
}
// * * * * * * * * * * * * * * * * * * * * * * * * * * * * * * * * * * * * * //

dimensions      [0 1 -1 0 0 0 0];

internalField   nonuniform List<vector> 
100
(
(3.16971 0 0)
(9.5702 0 0)
(15.9193 0 0)
(22.2815 0 0)
(28.627 0 0)
(34.9746 0 0)
(41.3349 0 0)
(47.6847 0 0)
(53.9805 0 0)
(60.3277 0 0)
(66.544 0 0)
(72.9952 0 0)
(79.1327 0 0)
(85.7164 0 0)
(91.673 0 0)
(98.3025 0 0)
(104.342 0 0)
(110.922 0 0)
(117.196 0 0)
(123.602 0 0)
(130.043 0 0)
(135.932 0 0)
(142.172 0 0)
(147.83 0 0)
(153.989 0 0)
(159.889 0 0)
(166.49 0 0)
(173.084 0 0)
(180.411 0 0)
(187.539 0 0)
(194.776 0 0)
(202.365 0 0)
(213.493 0 0)
(229.895 0 0)
(240.755 0 0)
(244.852 0 0)
(248.21 0 0)
(251.274 0 0)
(253.263 0 0)
(254.051 0 0)
(256.362 0 0)
(259.54 0 0)
(262.564 0 0)
(266.142 0 0)
(271.123 0 0)
(275.413 0 0)
(277.844 0 0)
(280.528 0 0)
(282.955 0 0)
(283.775 0 0)
(283.952 0 0)
(283.827 0 0)
(283.234 0 0)
(282.803 0 0)
(283.405 0 0)
(283.978 0 0)
(282.652 0 0)
(281.631 0 0)
(283.786 0 0)
(285.857 0 0)
(283.898 0 0)
(279.577 0 0)
(279.878 0 0)
(288.411 0 0)
(290.394 0 0)
(279.011 0 0)
(273.982 0 0)
(278.983 0 0)
(290.84 0 0)
(290.163 0 0)
(273.762 0 0)
(208.53 0 0)
(40.0159 0 0)
(10.0647 0 0)
(-0.911077 0 0)
(22.451 0 0)
(16.7326 0 0)
(19.4045 0 0)
(18.036 0 0)
(1.53563 0 0)
(3.03119 0 0)
(-5.84555 0 0)
(-8.87743 0 0)
(-3.36297 0 0)
(-7.62854 0 0)
(-7.00061 0 0)
(-1.84366 0 0)
(1.59107 0 0)
(4.69358 0 0)
(9.29929 0 0)
(9.69502 0 0)
(5.1581 0 0)
(-5.44436 0 0)
(-11.9041 0 0)
(-11.8355 0 0)
(-4.69061 0 0)
(5.71635 0 0)
(12.0581 0 0)
(14.409 0 0)
(6.63804 0 0)
)
;

boundaryField
{
    sides
    {
        type            fixedValue;
        value           uniform (0 0 0);
    }
    empty
    {
        type            empty;
    }
}


// ************************************************************************* //
