/*--------------------------------*- C++ -*----------------------------------*\
| =========                 |                                                 |
| \\      /  F ield         | OpenFOAM: The Open Source CFD Toolbox           |
|  \\    /   O peration     | Version:  2412                                  |
|   \\  /    A nd           | Website:  www.openfoam.com                      |
|    \\/     M anipulation  |                                                 |
\*---------------------------------------------------------------------------*/
FoamFile
{
    version     2.0;
    format      ascii;
    arch        "LSB;label=32;scalar=64";
    class       volScalarField;
    location    "0.015926";
    object      TTR;
}
// * * * * * * * * * * * * * * * * * * * * * * * * * * * * * * * * * * * * * //

dimensions      [0 0 0 1 0 0 0];

internalField   nonuniform List<scalar> 
100
(
291.836
289.689
289.738
288.605
287.315
285.965
284.648
283.354
282.065
280.775
279.484
278.195
276.907
275.621
274.334
273.055
271.76
270.507
269.163
268.027
266.465
265.763
263.492
263.936
260.117
262.437
256.789
260.401
254.403
257.457
252.539
254.537
250.673
251.38
248.876
248.699
246.654
245.767
244.486
243.579
242.169
240.652
239.564
238.854
237.485
235.971
235.611
234.75
232.127
231.266
232.415
234.289
235.666
231.115
224.654
228.35
243.566
246.05
225.67
211.527
226.952
257.481
254.815
219.428
202.735
225.464
263.565
261.066
222.53
201.632
218.893
256.605
265.213
235.701
207.007
209.09
239.425
265.839
258.074
224.683
201.812
207.167
237.337
272.206
278.536
256.698
223.393
244.868
303.256
367.238
398.456
421.163
415.639
423.419
410.858
422.818
406.415
422.724
405.862
413.293
)
;

boundaryField
{
    sides
    {
        type            zeroGradient;
    }
    empty
    {
        type            empty;
    }
}


// ************************************************************************* //
