/*--------------------------------*- C++ -*----------------------------------*\
| =========                 |                                                 |
| \\      /  F ield         | OpenFOAM: The Open Source CFD Toolbox           |
|  \\    /   O peration     | Version:  2412                                  |
|   \\  /    A nd           | Website:  www.openfoam.com                      |
|    \\/     M anipulation  |                                                 |
\*---------------------------------------------------------------------------*/
FoamFile
{
    version     2.0;
    format      ascii;
    arch        "LSB;label=32;scalar=64";
    class       volVectorField;
    location    "5.21466e-05";
    object      U;
}
// * * * * * * * * * * * * * * * * * * * * * * * * * * * * * * * * * * * * * //

dimensions      [0 1 -1 0 0 0 0];

internalField   nonuniform List<vector> 
1800
(
(2.9 -3.90631e-14 0)
(2.9 1.69404e-14 0)
(2.9 4.70883e-14 0)
(2.9 -2.90696e-14 0)
(2.9 -3.28845e-14 0)
(2.9 -5.38768e-14 0)
(2.9 -7.06184e-14 0)
(2.9 -3.74141e-14 0)
(2.9 -4.02614e-14 0)
(2.9 -3.07752e-14 0)
(2.9 -1.65472e-15 0)
(2.9 -3.33098e-14 0)
(2.9 -4.56059e-14 0)
(2.9 -6.75674e-15 0)
(2.9 -4.64652e-14 0)
(2.9 -1.96544e-15 0)
(2.9 -3.50584e-15 0)
(2.9 -1.33132e-14 0)
(2.9 -4.00234e-14 0)
(2.9 -5.23425e-15 0)
(2.9 -3.5899e-14 0)
(2.9 -1.6457e-14 0)
(2.9 -1.25552e-14 0)
(2.9 1.3164e-14 0)
(2.9 -8.56344e-15 0)
(2.9 -5.25373e-14 0)
(2.9 -3.58159e-14 0)
(2.9 -2.33044e-14 0)
(2.9 4.23728e-14 0)
(2.9 7.74102e-14 0)
(2.9 -1.73258e-15 0)
(2.9 4.81017e-14 0)
(2.9 -4.87374e-14 0)
(2.9 -6.1222e-14 0)
(2.9 -2.78359e-15 0)
(2.9 6.40035e-16 0)
(2.9 -1.07191e-14 0)
(2.9 1.93279e-14 0)
(2.9 1.50815e-14 0)
(2.9 -6.80962e-15 0)
(2.9 -5.92663e-15 0)
(2.9 2.71456e-14 0)
(2.9 -1.51578e-16 0)
(2.9 -3.32633e-14 0)
(2.9 -4.63789e-14 0)
(2.9 -1.31925e-14 0)
(2.9 3.30497e-14 0)
(2.9 8.03657e-14 0)
(2.9 2.82177e-14 0)
(2.9 5.40497e-14 0)
(2.9 8.96157e-15 0)
(2.9 -1.33202e-14 0)
(2.9 2.68262e-14 0)
(2.9 -3.09552e-15 0)
(2.9 -5.51114e-15 0)
(2.9 -7.22575e-15 0)
(2.9 -4.13926e-14 0)
(2.9 -1.04116e-14 0)
(2.9 -4.83209e-14 0)
(2.9 -8.8252e-14 0)
(2.9 -8.85659e-14 0)
(2.9 3.04949e-14 0)
(2.9 -1.12564e-16 0)
(2.9 -4.21184e-14 0)
(2.9 -6.90595e-14 0)
(2.9 -1.41337e-13 0)
(2.9 -1.35513e-13 0)
(2.9 -1.19956e-13 0)
(2.9 -4.94699e-14 0)
(2.9 -2.40312e-14 0)
(2.9 3.20384e-14 0)
(2.9 -6.55931e-14 0)
(2.9 -2.28953e-14 0)
(2.9 -2.73848e-15 0)
(2.9 -2.00045e-14 0)
(2.9 1.48379e-14 0)
(2.9 -1.99759e-14 0)
(2.9 -5.36858e-14 0)
(2.9 -7.35778e-14 0)
(2.9 -2.5894e-14 0)
(2.9 -5.49752e-14 0)
(2.9 -3.98085e-14 0)
(2.9 -7.72892e-15 0)
(2.9 6.26074e-14 0)
(2.9 -3.39089e-14 0)
(2.9 -1.24468e-13 0)
(2.9 -1.15949e-13 0)
(2.9 -6.69079e-14 0)
(2.9 7.01085e-14 0)
(2.9 1.07779e-13 0)
(2.9 -6.97616e-15 0)
(2.9 3.17073e-14 0)
(2.9 -4.97162e-14 0)
(2.9 -1.32039e-13 0)
(2.9 -2.84864e-14 0)
(2.9 -3.48998e-14 0)
(2.9 -1.27946e-14 0)
(2.9 4.74115e-14 0)
(2.9 3.701e-15 0)
(2.9 -3.47606e-14 0)
(2.9 -1.61293e-14 0)
(2.9 4.09962e-14 0)
(2.9 8.92551e-15 0)
(2.9 -1.99625e-14 0)
(2.9 -7.18138e-15 0)
(2.9 -4.52628e-14 0)
(2.9 5.80815e-14 0)
(2.9 4.82548e-14 0)
(2.9 9.98005e-14 0)
(2.9 1.43764e-13 0)
(2.9 -2.64653e-15 0)
(2.9 -5.5147e-14 0)
(2.9 2.26104e-14 0)
(2.9 -2.75058e-14 0)
(2.9 -4.52267e-15 0)
(2.9 3.67004e-14 0)
(2.9 -6.2271e-14 0)
(2.9 -6.30899e-15 0)
(2.9 -1.33253e-13 0)
(2.9 -1.10564e-13 0)
(2.9 -2.05798e-14 0)
(2.9 -1.3808e-14 0)
(2.9 -2.57461e-14 0)
(2.9 -1.41231e-14 0)
(2.9 -1.79913e-14 0)
(2.9 -1.16888e-13 0)
(2.9 -1.00899e-13 0)
(2.9 -3.59872e-14 0)
(2.9 2.52046e-14 0)
(2.9 -5.14973e-14 0)
(2.9 -2.38165e-14 0)
(2.9 -4.07306e-14 0)
(2.9 -1.68057e-14 0)
(2.9 -2.15084e-14 0)
(2.9 1.41774e-15 0)
(2.9 3.56957e-14 0)
(2.9 1.9303e-14 0)
(2.9 1.96425e-14 0)
(2.9 1.51022e-14 0)
(2.9 -3.82685e-14 0)
(2.9 2.37827e-15 0)
(2.9 3.18932e-14 0)
(2.9 3.3928e-14 0)
(2.9 5.17668e-14 0)
(2.9 -7.43703e-14 0)
(2.9 -1.42406e-13 0)
(2.9 -1.54141e-14 0)
(2.9 -4.11217e-14 0)
(2.9 4.92436e-14 0)
(2.9 8.15539e-15 0)
(2.9 -2.14478e-14 0)
(2.9 -3.11518e-14 0)
(2.9 -5.08523e-14 0)
(2.9 -5.77755e-14 0)
(2.9 -3.83681e-14 0)
(2.9 -3.64089e-14 0)
(2.9 6.93761e-15 0)
(2.9 3.97859e-14 0)
(2.9 -4.6124e-14 0)
(2.9 -7.02806e-14 0)
(2.9 -2.44564e-14 0)
(2.9 -3.34373e-14 0)
(2.9 3.20491e-14 0)
(2.9 2.2378e-14 0)
(2.9 7.69132e-15 0)
(2.9 -1.03744e-14 0)
(2.9 2.82395e-14 0)
(2.9 3.42539e-14 0)
(2.9 2.45681e-14 0)
(2.9 6.0796e-14 0)
(2.9 -3.76922e-15 0)
(2.9 -1.65421e-14 0)
(2.9 4.46532e-15 0)
(2.9 -2.32179e-15 0)
(2.9 -1.92707e-15 0)
(2.9 -2.6099e-14 0)
(2.9 -8.71873e-15 0)
(2.9 1.29014e-14 0)
(2.9 -4.45964e-14 0)
(2.9 -4.0291e-14 0)
(2.9 3.42971e-15 0)
(2.9 -4.95446e-14 0)
(2.9 6.18302e-15 0)
(2.9 -3.20525e-14 0)
(2.9 -2.72555e-14 0)
(2.9 -3.22554e-14 0)
(2.9 -7.36365e-14 0)
(2.9 -5.07683e-14 0)
(2.9 1.69688e-14 0)
(2.9 -7.90907e-14 0)
(2.9 -4.7806e-14 0)
(2.9 -3.95709e-14 0)
(2.9 -2.51547e-14 0)
(2.9 -4.4144e-14 0)
(2.9 4.47921e-15 0)
(2.9 3.7811e-14 0)
(2.9 3.63608e-15 0)
(2.9 1.95646e-14 0)
(2.9 4.46828e-14 0)
(2.9 3.77787e-15 0)
(2.9 6.39416e-14 0)
(2.9 7.67131e-14 0)
(2.9 -8.58873e-15 0)
(2.9 -1.35059e-14 0)
(2.9 -5.50077e-14 0)
(2.9 -3.54588e-14 0)
(2.9 3.97915e-14 0)
(2.9 -9.31294e-15 0)
(2.9 -9.60455e-15 0)
(2.9 -1.58597e-14 0)
(2.9 2.17646e-14 0)
(2.9 4.11706e-14 0)
(2.9 -2.13866e-14 0)
(2.9 1.48064e-14 0)
(2.9 -2.85457e-14 0)
(2.9 2.20477e-15 0)
(2.9 3.30371e-14 0)
(2.9 3.4458e-14 0)
(2.9 -3.4772e-15 0)
(2.9 -4.79546e-14 0)
(2.9 -3.35328e-15 0)
(2.9 -3.96059e-14 0)
(2.9 -4.85895e-14 0)
(2.9 -2.51747e-14 0)
(2.9 8.79645e-15 0)
(2.9 -3.89111e-14 0)
(2.9 -1.36449e-14 0)
(2.9 1.88355e-14 0)
(2.9 -6.57863e-14 0)
(2.9 -8.46755e-14 0)
(2.9 -2.42365e-14 0)
(2.9 1.25798e-15 0)
(2.9 1.82122e-14 0)
(2.9 1.45998e-14 0)
(2.9 3.60967e-15 0)
(2.9 -2.36884e-14 0)
(2.9 3.10786e-14 0)
(2.9 -1.25714e-14 0)
(2.9 2.61941e-14 0)
(2.9 4.68711e-14 0)
(2.9 5.39759e-16 0)
(2.9 -7.4448e-14 0)
(2.9 1.23238e-14 0)
(2.9 -4.28093e-14 0)
(2.9 3.28611e-15 0)
(2.9 2.30287e-15 0)
(2.9 -3.24233e-14 0)
(2.9 -5.69493e-14 0)
(2.9 -1.52657e-14 0)
(2.9 -5.69422e-14 0)
(2.9 -5.27353e-14 0)
(2.9 -3.52781e-14 0)
(2.9 3.2229e-14 0)
(2.9 5.69396e-15 0)
(2.9 1.47867e-15 0)
(2.9 -6.03122e-15 0)
(2.9 -2.10972e-14 0)
(2.9 -9.92669e-15 0)
(2.9 7.25189e-14 0)
(2.9 4.78515e-14 0)
(2.9 5.54053e-14 0)
(2.9 2.78376e-14 0)
(2.9 -5.46654e-14 0)
(2.9 -8.08645e-14 0)
(2.9 6.84416e-15 0)
(2.9 2.59623e-14 0)
(2.9 3.68171e-14 0)
(2.9 -9.6141e-15 0)
(2.9 -6.46723e-14 0)
(2.9 9.9807e-15 0)
(2.9 3.49591e-14 0)
(2.9 8.04812e-14 0)
(2.9 2.46713e-14 0)
(2.9 6.17635e-14 0)
(2.9 6.98094e-15 0)
(2.9 2.54316e-14 0)
(2.9 6.36889e-14 0)
(2.9 1.966e-14 0)
(2.9 2.78876e-14 0)
(2.9 -1.20849e-14 0)
(2.9 -3.5181e-14 0)
(2.9 -3.71679e-14 0)
(2.9 -1.18031e-13 0)
(2.9 -4.83532e-14 0)
(2.9 -4.37118e-15 0)
(2.9 -6.2385e-14 0)
(2.9 -2.6655e-14 0)
(2.9 -2.27657e-14 0)
(2.9 -7.47393e-14 0)
(2.9 -6.20902e-14 0)
(2.9 2.55461e-15 0)
(2.9 3.2213e-14 0)
(2.9 -1.74851e-14 0)
(2.9 2.46312e-14 0)
(2.9 4.49805e-14 0)
(2.9 4.07895e-14 0)
(2.9 2.3125e-14 0)
(2.9 1.65951e-14 0)
(2.9 5.52104e-16 0)
(2.9 8.46782e-14 0)
(2.9 -1.41927e-14 0)
(2.9 -5.86596e-14 0)
(2.9 -4.72988e-14 0)
(2.9 -1.84212e-14 0)
(2.9 5.83935e-14 0)
(2.9 1.81872e-14 0)
(2.9 4.35051e-14 0)
(2.9 4.53883e-14 0)
(2.9 -4.90122e-14 0)
(2.9 -4.74339e-14 0)
(2.9 -7.70883e-14 0)
(2.9 3.22268e-15 0)
(2.9 -6.01714e-15 0)
(2.9 2.25842e-14 0)
(2.9 2.68193e-14 0)
(2.9 -2.89611e-14 0)
(2.9 -3.33476e-14 0)
(2.9 8.64202e-15 0)
(2.9 1.74744e-14 0)
(2.9 1.09972e-14 0)
(2.9 -2.67905e-14 0)
(2.9 -6.61851e-14 0)
(2.9 -6.18805e-15 0)
(2.9 -3.50499e-14 0)
(2.9 -1.94065e-14 0)
(2.9 1.19175e-14 0)
(2.9 2.79169e-14 0)
(2.9 3.898e-15 0)
(2.9 -1.98958e-14 0)
(2.9 1.53421e-14 0)
(2.9 -2.33023e-14 0)
(2.9 2.24111e-14 0)
(2.9 3.08756e-14 0)
(2.9 1.18163e-14 0)
(2.9 -4.81428e-14 0)
(2.9 -6.61748e-14 0)
(2.9 -5.04053e-14 0)
(2.9 -3.60198e-14 0)
(2.9 -6.94511e-14 0)
(2.9 -6.13382e-14 0)
(2.9 -9.97446e-14 0)
(2.9 -4.59518e-14 0)
(2.9 -5.67651e-14 0)
(2.9 -3.57389e-15 0)
(2.9 -1.89718e-14 0)
(2.9 5.20502e-14 0)
(2.9 -7.16952e-15 0)
(2.9 -3.9166e-14 0)
(2.9 -3.29775e-14 0)
(2.9 -1.60062e-14 0)
(2.9 1.42693e-14 0)
(2.9 1.16776e-14 0)
(2.9 -3.11366e-14 0)
(2.9 -3.10771e-14 0)
(2.9 -3.37919e-15 0)
(2.9 1.65977e-14 0)
(2.9 6.94749e-15 0)
(2.9 2.18844e-14 0)
(2.9 -1.2299e-14 0)
(2.9 5.5431e-15 0)
(2.9 -2.35887e-14 0)
(2.9 1.71557e-15 0)
(2.9 -9.97983e-14 0)
(2.9 4.77719e-15 0)
(2.9 9.03755e-14 0)
(2.9 1.93219e-14 0)
(2.9 4.35754e-14 0)
(2.9 6.82989e-14 0)
(2.9 -2.22382e-15 0)
(2.9 -3.99169e-14 0)
(2.9 -5.2278e-14 0)
(2.9 -2.8323e-14 0)
(2.9 -4.38571e-14 0)
(2.9 -6.47174e-16 0)
(2.9 7.49056e-15 0)
(2.9 -6.92755e-15 0)
(2.9 -1.86019e-14 0)
(2.9 3.36059e-14 0)
(2.9 -3.21208e-14 0)
(2.9 -1.96437e-14 0)
(2.9 -7.88709e-14 0)
(2.9 -5.66218e-14 0)
(2.9 -9.30302e-15 0)
(2.9 -1.5038e-14 0)
(2.9 -6.69803e-15 0)
(2.9 5.56863e-15 0)
(2.9 5.97446e-14 0)
(2.9 5.71341e-15 0)
(2.9 3.17644e-15 0)
(2.9 2.83422e-14 0)
(2.9 -4.02622e-14 0)
(2.9 7.871e-15 0)
(2.9 9.27423e-15 0)
(2.9 -5.31685e-15 0)
(2.9 -5.36904e-14 0)
(2.9 -1.35236e-13 0)
(2.9 -8.256e-14 0)
(2.9 -5.31084e-14 0)
(2.9 -9.20928e-14 0)
(2.9 -5.42546e-14 0)
(2.9 -6.04555e-14 0)
(2.9 -1.02972e-14 0)
(2.9 1.4345e-14 0)
(2.9 6.55234e-14 0)
(2.9 2.59694e-14 0)
(2.9 -4.26674e-15 0)
(2.9 -5.56391e-14 0)
(2.9 -3.35299e-14 0)
(2.9 -3.95234e-14 0)
(2.9 5.50507e-15 0)
(2.9 -1.16659e-15 0)
(2.9 -4.63971e-14 0)
(2.9 -3.80496e-14 0)
(2.9 -5.22826e-14 0)
(2.9 -8.18646e-14 0)
(2.9 -5.05258e-14 0)
(2.9 7.50114e-15 0)
(2.9 -1.68211e-14 0)
(2.9 -3.59882e-14 0)
(2.9 -3.3069e-14 0)
(2.9 -2.02835e-15 0)
(2.9 4.49458e-14 0)
(2.9 -6.8011e-14 0)
(2.9 -2.04033e-14 0)
(2.9 -9.2696e-15 0)
(2.9 6.20384e-14 0)
(2.9 8.12654e-14 0)
(2.9 -6.29027e-15 0)
(2.9 1.42551e-14 0)
(2.9 -5.67726e-15 0)
(2.9 -3.62091e-14 0)
(2.9 -6.32221e-14 0)
(2.9 -6.74986e-14 0)
(2.9 -4.02914e-14 0)
(2.9 -4.83323e-14 0)
(2.9 4.60321e-14 0)
(2.9 4.00473e-14 0)
(2.9 -1.00592e-14 0)
(2.9 -3.20118e-14 0)
(2.9 -8.77332e-14 0)
(2.9 -4.00228e-14 0)
(2.9 -6.54055e-15 0)
(2.9 5.48323e-14 0)
(2.9 -5.85489e-15 0)
(2.9 1.53757e-14 0)
(2.9 3.01298e-14 0)
(2.9 5.70207e-14 0)
(2.9 3.75155e-14 0)
(2.9 5.75563e-14 0)
(2.9 7.97643e-15 0)
(2.9 -2.3126e-15 0)
(2.9 3.85453e-14 0)
(2.9 3.60088e-14 0)
(2.9 1.63956e-14 0)
(2.9 -3.18321e-14 0)
(2.9 -4.17215e-14 0)
(2.9 -3.64469e-14 0)
(2.9 1.36372e-14 0)
(2.9 -1.87296e-14 0)
(2.9 -2.13398e-14 0)
(2.9 -6.21442e-15 0)
(2.9 7.0211e-14 0)
(2.9 5.87327e-14 0)
(2.9 7.97835e-14 0)
(2.9 4.33642e-14 0)
(2.9 -3.75119e-14 0)
(2.9 -5.61098e-14 0)
(2.9 -6.72444e-15 0)
(2.9 -8.00971e-15 0)
(2.9 -5.23653e-14 0)
(2.9 1.54332e-14 0)
(2.9 -1.79221e-14 0)
(2.9 -6.84941e-14 0)
(2.9 -6.06173e-14 0)
(2.9 -5.62594e-14 0)
(2.9 -4.46701e-14 0)
(2.9 -3.70942e-14 0)
(2.9 -4.5051e-15 0)
(2.9 -3.00253e-14 0)
(2.9 -1.59112e-14 0)
(2.9 -1.13133e-14 0)
(2.9 6.91507e-14 0)
(2.9 7.46494e-15 0)
(2.9 -8.24932e-15 0)
(2.9 -4.0612e-14 0)
(2.9 1.02203e-14 0)
(2.9 3.75366e-14 0)
(2.9 -4.47257e-14 0)
(2.9 2.50484e-14 0)
(2.9 3.31892e-14 0)
(2.9 -2.29826e-14 0)
(2.9 -7.13002e-14 0)
(2.9 -6.77907e-14 0)
(2.9 -9.15208e-14 0)
(2.9 -6.34241e-14 0)
(2.9 -6.03964e-15 0)
(2.9 4.29233e-14 0)
(2.9 1.93762e-14 0)
(2.9 -3.96373e-14 0)
(2.9 -1.07501e-13 0)
(2.9 -1.11882e-14 0)
(2.9 4.37681e-14 0)
(2.9 5.34969e-15 0)
(2.9 -2.27787e-15 0)
(2.9 4.01786e-14 0)
(2.9 1.20262e-14 0)
(2.9 6.45197e-14 0)
(2.9 3.1753e-14 0)
(2.9 1.08991e-13 0)
(2.9 1.45934e-14 0)
(2.9 4.03903e-15 0)
(2.9 -1.43901e-14 0)
(2.9 5.03986e-14 0)
(2.9 -3.06369e-14 0)
(2.9 -2.53125e-14 0)
(2.9 3.67601e-14 0)
(2.9 9.3981e-15 0)
(2.9 3.64614e-14 0)
(2.9 4.11478e-14 0)
(2.9 2.54167e-14 0)
(2.9 1.27759e-14 0)
(2.9 7.75168e-14 0)
(2.9 7.60713e-14 0)
(2.9 5.14734e-14 0)
(2.9 5.0111e-14 0)
(2.9 2.75557e-14 0)
(2.9 -3.22468e-14 0)
(2.9 1.71348e-15 0)
(2.9 3.17348e-14 0)
(2.9 -2.82992e-15 0)
(2.9 6.81926e-15 0)
(2.9 4.96633e-14 0)
(2.9 -2.20791e-14 0)
(2.9 -7.26015e-14 0)
(2.9 2.88389e-14 0)
(2.9 -2.69004e-14 0)
(2.9 -5.181e-14 0)
(2.9 1.92366e-14 0)
(2.9 -3.10717e-14 0)
(2.9 -3.31531e-14 0)
(2.9 -2.97413e-14 0)
(2.9 2.64433e-14 0)
(2.9 6.65326e-14 0)
(2.9 4.10977e-14 0)
(2.9 1.09404e-14 0)
(2.9 -5.82033e-15 0)
(2.9 -2.16853e-14 0)
(2.9 -9.71015e-15 0)
(2.9 3.71994e-14 0)
(2.9 3.38661e-14 0)
(2.9 1.70329e-14 0)
(2.9 -3.69898e-14 0)
(2.9 -8.24886e-14 0)
(2.9 -4.45519e-14 0)
(2.9 -1.82773e-14 0)
(2.9 7.62587e-15 0)
(2.9 2.68207e-14 0)
(2.9 6.995e-14 0)
(2.9 -4.31246e-16 0)
(2.9 -4.27268e-14 0)
(2.9 -2.42943e-14 0)
(2.9 1.09133e-14 0)
(2.9 -3.78453e-14 0)
(2.9 -1.62188e-14 0)
(2.9 -1.00892e-15 0)
(2.9 -2.64005e-15 0)
(2.9 1.29886e-14 0)
(2.9 3.00095e-14 0)
(2.9 5.1391e-14 0)
(2.9 3.02665e-14 0)
(2.9 -5.97124e-15 0)
(2.9 -6.00272e-14 0)
(2.9 5.52999e-14 0)
(2.9 -1.90973e-14 0)
(2.9 1.7041e-14 0)
(2.9 4.72712e-14 0)
(2.9 3.04994e-14 0)
(2.9 1.55524e-14 0)
(2.9 1.54811e-14 0)
(2.9 4.49089e-14 0)
(2.9 4.80366e-14 0)
(2.9 1.92876e-14 0)
(2.9 3.66339e-14 0)
(2.9 1.56526e-14 0)
(2.9 1.77479e-14 0)
(2.9 7.24275e-14 0)
(2.9 -1.78169e-14 0)
(2.9 -1.80963e-14 0)
(2.9 3.60822e-14 0)
(2.9 6.59662e-14 0)
(2.9 -6.93975e-15 0)
(2.9 5.59526e-14 0)
(2.9 -2.355e-15 0)
(2.9 -3.12232e-14 0)
(2.9 3.68845e-14 0)
(2.9 -2.72769e-14 0)
(2.9 -4.44012e-14 0)
(2.9 -5.08158e-14 0)
(2.9 -3.26006e-14 0)
(2.9 -1.14138e-14 0)
(2.9 -6.53796e-14 0)
(2.9 -1.96819e-14 0)
(2.9 1.02566e-13 0)
(2.9 3.09403e-14 0)
(2.9 -2.59801e-14 0)
(2.9 -2.57988e-14 0)
(2.9 1.4016e-14 0)
(2.9 7.26579e-14 0)
(2.9 7.67726e-14 0)
(2.9 -3.29552e-14 0)
(2.9 1.64976e-14 0)
(2.9 2.81138e-14 0)
(2.9 -9.46876e-15 0)
(2.9 4.19905e-14 0)
(2.9 3.0916e-14 0)
(2.9 5.38188e-14 0)
(2.9 -1.5735e-14 0)
(2.9 3.07653e-14 0)
(2.9 6.70338e-14 0)
(2.9 1.64334e-14 0)
(2.9 -5.44609e-14 0)
(2.9 2.21671e-14 0)
(2.9 -2.91028e-15 0)
(2.9 3.18167e-14 0)
(2.9 -4.81344e-14 0)
(2.9 -1.2244e-14 0)
(2.9 -4.0028e-14 0)
(2.9 5.11619e-14 0)
(2.9 8.28917e-15 0)
(2.9 -1.32938e-14 0)
(2.9 -4.53679e-14 0)
(2.9 -1.24492e-13 0)
(2.9 -2.27147e-14 0)
(2.9 -1.50034e-14 0)
(2.9 -2.80568e-14 0)
(2.9 4.57433e-14 0)
(2.9 4.9044e-14 0)
(2.9 -1.47627e-14 0)
(2.9 2.0644e-14 0)
(2.9 2.25741e-14 0)
(2.9 4.9284e-14 0)
(2.9 -7.64641e-15 0)
(2.9 6.51715e-16 0)
(2.9 4.90877e-16 0)
(2.9 -3.42646e-14 0)
(2.9 2.28133e-14 0)
(2.9 -3.36215e-14 0)
(2.9 -2.24729e-14 0)
(2.9 2.48895e-14 0)
(2.9 6.83984e-14 0)
(2.9 -3.75714e-14 0)
(2.9 1.69623e-15 0)
(2.9 8.71555e-15 0)
(2.9 -1.27128e-14 0)
(2.9 1.03776e-14 0)
(2.9 6.26743e-15 0)
(2.9 -3.46424e-14 0)
(2.9 -9.11529e-14 0)
(2.9 3.98627e-14 0)
(2.9 5.57397e-14 0)
(2.9 -5.53553e-15 0)
(2.9 4.33823e-15 0)
(2.9 1.27919e-14 0)
(2.9 -2.64248e-14 0)
(2.9 -2.44715e-14 0)
(2.9 -2.67847e-14 0)
(2.9 3.55242e-14 0)
(2.9 6.13787e-14 0)
(2.9 3.5452e-14 0)
(2.9 -3.96e-14 0)
(2.9 2.73881e-14 0)
(2.9 4.61911e-14 0)
(2.9 3.35729e-14 0)
(2.9 2.67474e-15 0)
(2.9 6.00152e-15 0)
(2.9 1.50673e-14 0)
(2.9 -4.74561e-14 0)
(2.9 -4.66325e-14 0)
(2.9 1.68014e-14 0)
(2.9 2.76198e-14 0)
(2.9 -9.79765e-15 0)
(2.9 -2.45123e-14 0)
(2.9 -1.28254e-14 0)
(2.9 1.94722e-14 0)
(2.9 -5.47807e-14 0)
(2.9 -3.08545e-15 0)
(2.9 -3.47502e-14 0)
(2.9 1.07947e-14 0)
(2.9 -6.60332e-14 0)
(2.9 -2.15837e-14 0)
(2.9 1.77531e-14 0)
(2.9 -6.55119e-14 0)
(2.9 -7.23449e-14 0)
(2.9 -3.19463e-14 0)
(2.9 7.19024e-15 0)
(2.9 6.2939e-15 0)
(2.9 -1.24191e-15 0)
(2.9 6.69486e-15 0)
(2.9 1.38767e-14 0)
(2.9 -2.68087e-14 0)
(2.9 5.92384e-14 0)
(2.9 -2.16108e-14 0)
(2.9 1.58102e-14 0)
(2.9 -1.79278e-14 0)
(2.9 -8.66896e-15 0)
(2.9 -2.96441e-14 0)
(2.9 1.02037e-14 0)
(2.9 -9.8441e-15 0)
(2.9 -3.30816e-14 0)
(2.9 1.20486e-14 0)
(2.9 -4.76259e-14 0)
(2.9 -1.90432e-14 0)
(2.9 8.81211e-15 0)
(2.9 3.89083e-14 0)
(2.9 -8.45826e-15 0)
(2.9 -9.7904e-15 0)
(2.9 -1.02377e-14 0)
(2.9 -5.70624e-14 0)
(2.9 5.56513e-14 0)
(2.9 4.327e-14 0)
(2.9 5.67716e-14 0)
(2.9 1.98576e-14 0)
(2.9 -5.15393e-14 0)
(2.9 2.95607e-14 0)
(2.9 -1.72876e-14 0)
(2.9 -6.01653e-15 0)
(2.9 9.77776e-15 0)
(2.9 1.06483e-14 0)
(2.9 -2.44036e-14 0)
(2.9 -1.61469e-14 0)
(2.9 3.5378e-14 0)
(2.9 4.07959e-15 0)
(2.9 -1.09362e-14 0)
(2.9 -2.00859e-14 0)
(2.9 -1.28315e-14 0)
(2.9 -5.80918e-14 0)
(2.9 -1.70225e-14 0)
(2.9 -1.37474e-14 0)
(2.9 -3.17659e-14 0)
(2.9 4.04616e-14 0)
(2.9 1.41061e-15 0)
(2.9 -1.31389e-14 0)
(2.9 -4.37912e-15 0)
(2.9 -3.04971e-14 0)
(2.9 -4.80714e-14 0)
(2.9 9.32036e-15 0)
(2.9 -8.61347e-15 0)
(2.9 -5.9908e-14 0)
(2.9 -4.97663e-14 0)
(2.9 2.01993e-14 0)
(2.9 1.63537e-14 0)
(2.9 1.69577e-14 0)
(2.9 -4.65528e-14 0)
(2.9 6.43953e-15 0)
(2.9 4.1823e-14 0)
(2.9 1.15913e-14 0)
(2.9 -1.93168e-14 0)
(2.9 1.18131e-14 0)
(2.9 3.26234e-15 0)
(2.9 1.25856e-14 0)
(2.9 5.05965e-14 0)
(2.9 3.44461e-15 0)
(2.9 -2.67023e-15 0)
(2.9 -1.60288e-15 0)
(2.9 -7.06591e-15 0)
(2.9 2.31205e-14 0)
(2.9 1.4038e-14 0)
(2.9 -4.92897e-14 0)
(2.9 -5.00951e-14 0)
(2.9 -2.01303e-14 0)
(2.9 -5.36776e-14 0)
(2.9 -2.18048e-14 0)
(2.9 3.73004e-14 0)
(2.9 3.16758e-14 0)
(2.9 3.29278e-14 0)
(2.9 -3.57924e-15 0)
(2.9 -4.52878e-14 0)
(2.9 -4.26839e-15 0)
(2.9 3.86583e-14 0)
(2.9 2.05154e-14 0)
(2.9 1.18092e-14 0)
(2.9 -2.17969e-14 0)
(2.9 -4.06388e-14 0)
(2.9 1.64609e-14 0)
(2.9 -4.03184e-14 0)
(2.9 -2.79962e-14 0)
(2.9 1.71806e-14 0)
(2.9 -4.50667e-14 0)
(2.9 -2.48053e-14 0)
(2.9 3.2562e-14 0)
(2.9 6.36644e-14 0)
(2.9 -9.12632e-15 0)
(2.9 5.27402e-14 0)
(2.9 2.97119e-14 0)
(2.9 -4.84263e-14 0)
(2.9 -7.45797e-14 0)
(2.9 1.79907e-14 0)
(2.9 4.8112e-14 0)
(2.9 -1.06977e-14 0)
(2.9 4.91418e-14 0)
(2.9 4.97988e-14 0)
(2.9 3.73725e-14 0)
(2.9 1.65459e-14 0)
(2.9 -5.33319e-14 0)
(2.9 2.64051e-14 0)
(2.9 -3.03495e-15 0)
(2.9 -7.99206e-14 0)
(2.9 -1.6907e-13 0)
(2.9 -3.19771e-14 0)
(2.9 2.94271e-14 0)
(2.9 -1.23377e-14 0)
(2.9 -9.37983e-15 0)
(2.9 -2.20996e-14 0)
(2.9 6.73626e-14 0)
(2.9 1.0769e-14 0)
(2.9 2.9718e-14 0)
(2.9 -1.66355e-14 0)
(2.9 -3.72963e-14 0)
(2.9 1.52473e-14 0)
(2.9 4.42341e-14 0)
(2.9 8.42356e-14 0)
(2.9 1.3563e-14 0)
(2.9 1.08994e-14 0)
(2.9 -6.01379e-14 0)
(2.9 3.25163e-15 0)
(2.9 8.27348e-14 0)
(2.9 5.68349e-14 0)
(2.9 -6.61386e-15 0)
(2.9 -6.52199e-16 0)
(2.9 -1.69069e-14 0)
(2.9 -8.41219e-15 0)
(2.9 -8.89202e-15 0)
(2.9 9.1171e-15 0)
(2.9 6.26466e-14 0)
(2.9 7.95407e-14 0)
(2.9 -2.81625e-14 0)
(2.9 -1.66349e-14 0)
(2.9 1.04796e-13 0)
(2.9 6.12716e-14 0)
(2.9 7.77597e-14 0)
(2.9 -8.70954e-14 0)
(2.9 -7.86519e-14 0)
(2.9 -1.26094e-14 0)
(2.9 1.88427e-14 0)
(2.9 9.09947e-15 0)
(2.9 -3.40434e-14 0)
(2.9 -3.35771e-14 0)
(2.9 -1.44968e-14 0)
(2.9 1.76671e-14 0)
(2.9 7.94108e-14 0)
(2.9 6.66208e-14 0)
(2.9 7.31315e-15 0)
(2.9 4.36037e-14 0)
(2.9 5.45936e-15 0)
(2.9 -3.74036e-14 0)
(2.9 2.81761e-15 0)
(2.9 4.6381e-14 0)
(2.9 6.13624e-14 0)
(2.9 8.96199e-15 0)
(2.9 3.83047e-14 0)
(2.9 5.79723e-14 0)
(2.9 6.17821e-14 0)
(2.9 7.21879e-15 0)
(2.9 2.41709e-14 0)
(2.9 5.10949e-14 0)
(2.9 -1.77044e-14 0)
(2.9 -4.48277e-14 0)
(2.9 -9.65915e-14 0)
(2.9 -3.51208e-14 0)
(2.9 -2.09292e-14 0)
(2.9 -1.89152e-14 0)
(2.9 -2.00116e-14 0)
(2.9 -2.96905e-15 0)
(2.9 5.41888e-14 0)
(2.9 6.16246e-14 0)
(2.9 5.06886e-14 0)
(2.9 2.66594e-14 0)
(2.9 -6.25877e-14 0)
(2.9 8.60778e-15 0)
(2.9 -1.24716e-15 0)
(2.9 7.06353e-14 0)
(2.9 3.67599e-14 0)
(2.9 5.5829e-15 0)
(2.9 -3.95804e-14 0)
(2.9 -2.99326e-14 0)
(2.9 -1.60078e-14 0)
(2.9 5.64589e-14 0)
(2.9 -5.8774e-15 0)
(2.9 3.00812e-15 0)
(2.9 -5.29885e-14 0)
(2.9 -2.11889e-14 0)
(2.9 -1.23919e-14 0)
(2.9 8.371e-15 0)
(2.9 2.74283e-14 0)
(2.9 -4.35846e-15 0)
(2.9 8.14885e-15 0)
(2.9 5.93789e-14 0)
(2.9 9.28732e-14 0)
(2.9 2.32567e-14 0)
(2.9 4.91222e-14 0)
(2.9 -1.32197e-14 0)
(2.9 -4.95675e-14 0)
(2.9 -2.4521e-14 0)
(2.9 8.44482e-15 0)
(2.9 6.52234e-14 0)
(2.9 1.74827e-14 0)
(2.9 -3.85353e-14 0)
(2.9 6.9429e-16 0)
(2.9 -1.66457e-14 0)
(2.9 3.66951e-14 0)
(2.9 9.50163e-15 0)
(2.9 1.22689e-14 0)
(2.9 1.56845e-14 0)
(2.9 2.13244e-14 0)
(2.9 3.44851e-14 0)
(2.9 4.28817e-14 0)
(2.9 2.60212e-14 0)
(2.9 4.13636e-14 0)
(2.9 2.43296e-14 0)
(2.9 4.08481e-14 0)
(2.9 5.38296e-14 0)
(2.9 2.36252e-14 0)
(2.9 2.28184e-14 0)
(2.9 4.63216e-14 0)
(2.9 -1.03331e-14 0)
(2.9 1.56212e-14 0)
(2.9 3.721e-14 0)
(2.9 2.90357e-14 0)
(2.9 2.54728e-14 0)
(2.9 6.1781e-15 0)
(2.9 2.57437e-14 0)
(2.9 3.62417e-14 0)
(2.9 2.6561e-14 0)
(2.9 1.27356e-14 0)
(2.9 7.45824e-14 0)
(2.9 1.59123e-14 0)
(2.9 9.38725e-15 0)
(2.9 2.27875e-15 0)
(2.9 -5.7208e-16 0)
(2.9 -3.8477e-15 0)
(2.9 -3.05304e-14 0)
(2.9 3.28425e-14 0)
(2.9 -2.71683e-14 0)
(2.9 -1.18127e-14 0)
(2.9 -4.88376e-14 0)
(2.9 -9.12915e-14 0)
(2.9 -7.26559e-15 0)
(2.9 -8.65839e-14 0)
(2.9 9.33185e-15 0)
(2.9 -4.38022e-14 0)
(2.9 -8.83001e-15 0)
(2.9 -4.49415e-14 0)
(2.9 4.54695e-14 0)
(2.9 -1.49785e-17 0)
(2.9 -9.17692e-14 0)
(2.9 2.99495e-14 0)
(2.9 1.02457e-13 0)
(2.9 3.08603e-14 0)
(2.9 -4.27201e-14 0)
(2.9 -3.52011e-14 0)
(2.9 3.28855e-14 0)
(2.9 -5.37311e-14 0)
(2.9 2.12706e-14 0)
(2.9 -1.08628e-14 0)
(2.9 4.70688e-14 0)
(2.9 3.82502e-14 0)
(2.9 -1.39106e-14 0)
(2.9 -1.65425e-14 0)
(2.9 -2.30795e-14 0)
(2.9 -4.26255e-14 0)
(2.9 -1.94443e-18 0)
(2.9 5.22543e-14 0)
(2.9 -3.69614e-15 0)
(2.9 1.13412e-13 0)
(2.9 1.37197e-13 0)
(2.9 3.86376e-14 0)
(2.9 -5.08104e-14 0)
(2.9 -1.43206e-14 0)
(2.9 1.14875e-13 0)
(2.9 3.27504e-14 0)
(2.9 2.15585e-14 0)
(2.9 -3.80342e-14 0)
(2.9 3.37794e-14 0)
(2.9 5.00541e-14 0)
(2.9 -2.83185e-14 0)
(2.9 1.27135e-14 0)
(2.9 5.80271e-14 0)
(2.9 1.74405e-13 0)
(2.9 8.4628e-14 0)
(2.9 2.82882e-14 0)
(2.9 5.34515e-14 0)
(2.9 1.36551e-13 0)
(2.9 4.36302e-14 0)
(2.9 -1.98484e-14 0)
(2.9 2.7939e-14 0)
(2.9 -5.27464e-14 0)
(2.9 -4.63622e-14 0)
(2.9 4.84163e-14 0)
(2.9 -3.53823e-14 0)
(2.9 -3.83709e-15 0)
(2.9 -1.15957e-13 0)
(2.9 -7.52368e-16 0)
(2.9 -3.90687e-14 0)
(2.9 7.49562e-14 0)
(2.9 4.08294e-14 0)
(2.9 -3.22642e-14 0)
(2.9 -4.20618e-14 0)
(2.9 -3.73421e-14 0)
(2.9 2.90272e-15 0)
(2.9 2.01972e-14 0)
(2.9 7.21377e-14 0)
(2.9 -4.49913e-15 0)
(2.9 4.0927e-14 0)
(2.9 -2.35488e-14 0)
(2.9 -7.86356e-14 0)
(2.9 1.92622e-14 0)
(2.9 5.49312e-14 0)
(2.9 5.77606e-14 0)
(2.9 -3.35773e-14 0)
(2.9 -1.28487e-13 0)
(2.9 -3.23837e-14 0)
(2.9 -1.67257e-14 0)
(2.9 5.28313e-15 0)
(2.9 -7.60556e-14 0)
(2.9 -2.32313e-14 0)
(2.9 1.32875e-14 0)
(2.9 3.9842e-14 0)
(2.9 3.59953e-14 0)
(2.9 5.7943e-14 0)
(2.9 1.24686e-14 0)
(2.9 -5.70414e-15 0)
(2.9 2.18442e-14 0)
(2.9 1.70234e-14 0)
(2.9 4.24418e-14 0)
(2.9 4.64155e-14 0)
(2.9 1.61632e-14 0)
(2.9 -1.80812e-14 0)
(2.9 2.61208e-15 0)
(2.9 5.20318e-14 0)
(2.9 1.21127e-14 0)
(2.9 -4.88797e-15 0)
(2.9 -3.70149e-14 0)
(2.9 4.30819e-15 0)
(2.9 4.77537e-14 0)
(2.9 3.8242e-14 0)
(2.9 1.9993e-14 0)
(2.9 5.70172e-14 0)
(2.9 1.0874e-13 0)
(2.9 5.48189e-14 0)
(2.9 3.2438e-14 0)
(2.9 5.46511e-14 0)
(2.9 7.24173e-14 0)
(2.9 1.93871e-14 0)
(2.9 -8.51602e-15 0)
(2.9 4.55507e-14 0)
(2.9 -3.29674e-14 0)
(2.9 -3.23562e-14 0)
(2.9 3.15735e-14 0)
(2.9 -9.12297e-15 0)
(2.9 -2.82443e-14 0)
(2.9 -6.81078e-14 0)
(2.9 1.38761e-14 0)
(2.9 -2.06317e-15 0)
(2.9 3.91343e-14 0)
(2.9 2.68601e-14 0)
(2.9 1.69018e-14 0)
(2.9 2.06861e-14 0)
(2.9 1.76211e-18 0)
(2.9 1.40045e-14 0)
(2.9 2.75734e-14 0)
(2.9 1.70806e-14 0)
(2.9 3.38017e-14 0)
(2.9 2.6697e-14 0)
(2.9 5.35172e-15 0)
(2.9 -9.1733e-15 0)
(2.9 1.69267e-14 0)
(2.9 -4.34997e-15 0)
(2.9 5.40111e-15 0)
(2.9 -3.91842e-14 0)
(2.9 -6.68974e-14 0)
(2.9 -7.4613e-14 0)
(2.9 1.83366e-15 0)
(2.9 4.62928e-16 0)
(2.9 -8.7265e-14 0)
(2.9 -3.45291e-14 0)
(2.9 1.31679e-14 0)
(2.9 3.02113e-14 0)
(2.9 2.74916e-14 0)
(2.9 8.58069e-14 0)
(2.9 3.44339e-14 0)
(2.9 -3.85123e-14 0)
(2.9 -1.46726e-14 0)
(2.9 -6.10997e-15 0)
(2.9 -5.64721e-14 0)
(2.9 -1.59135e-14 0)
(2.9 -1.06675e-14 0)
(2.9 1.54664e-14 0)
(2.9 1.2636e-14 0)
(2.9 -2.49475e-14 0)
(2.9 2.61174e-14 0)
(2.9 1.19237e-14 0)
(2.9 -2.35132e-14 0)
(2.9 8.016e-16 0)
(2.9 6.60616e-14 0)
(2.9 8.42393e-14 0)
(2.9 6.61953e-14 0)
(2.9 7.61086e-16 0)
(2.9 -6.03381e-14 0)
(2.9 -1.67638e-15 0)
(2.9 2.56312e-14 0)
(2.9 7.47362e-14 0)
(2.9 2.68244e-14 0)
(2.9 6.12633e-15 0)
(2.9 1.65622e-14 0)
(2.9 4.64594e-14 0)
(2.9 1.44853e-14 0)
(2.9 7.34607e-15 0)
(2.9 -1.59966e-14 0)
(2.9 2.46014e-14 0)
(2.9 3.06219e-14 0)
(2.9 2.19451e-15 0)
(2.9 -2.21898e-14 0)
(2.9 6.41512e-14 0)
(2.9 -1.32143e-15 0)
(2.9 -9.52813e-15 0)
(2.9 3.09781e-14 0)
(2.9 4.66207e-15 0)
(2.9 4.20374e-14 0)
(2.9 -2.53852e-15 0)
(2.9 4.15591e-14 0)
(2.9 -6.56387e-15 0)
(2.9 7.74148e-14 0)
(2.9 5.45928e-14 0)
(2.9 8.63569e-14 0)
(2.9 7.56434e-14 0)
(2.9 7.18851e-14 0)
(2.9 1.20152e-14 0)
(2.9 1.44246e-14 0)
(2.9 -3.93087e-14 0)
(2.9 -1.34477e-15 0)
(2.9 -3.669e-14 0)
(2.9 -2.84569e-14 0)
(2.9 -7.21851e-14 0)
(2.9 -6.61699e-14 0)
(2.9 -2.05807e-14 0)
(2.9 -6.49617e-14 0)
(2.9 -1.94261e-14 0)
(2.9 -4.71233e-14 0)
(2.9 2.53166e-14 0)
(2.9 1.24589e-14 0)
(2.9 -1.47859e-14 0)
(2.9 1.55366e-14 0)
(2.9 2.14333e-15 0)
(2.9 -1.67886e-14 0)
(2.9 -4.63041e-14 0)
(2.9 -1.33279e-14 0)
(2.9 5.93042e-14 0)
(2.9 -5.50031e-15 0)
(2.9 -1.06879e-13 0)
(2.9 6.01768e-14 0)
(2.9 7.71511e-14 0)
(2.9 -1.79298e-14 0)
(2.9 2.16653e-14 0)
(2.9 1.87756e-14 0)
(2.9 3.37222e-14 0)
(2.9 8.75146e-14 0)
(2.9 -4.74288e-14 0)
(2.9 -1.26791e-13 0)
(2.9 -2.11764e-14 0)
(2.9 9.36389e-15 0)
(2.9 2.96257e-14 0)
(2.9 6.61298e-14 0)
(2.9 8.71794e-15 0)
(2.9 -9.03594e-15 0)
(2.9 -1.36322e-15 0)
(2.9 7.87867e-15 0)
(2.9 3.82545e-15 0)
(2.9 -1.55766e-15 0)
(2.9 3.11673e-14 0)
(2.9 9.53496e-14 0)
(2.9 6.46839e-14 0)
(2.9 -2.82139e-14 0)
(2.9 2.88123e-14 0)
(2.9 -2.01206e-14 0)
(2.9 -2.05541e-14 0)
(2.9 -1.43817e-15 0)
(2.9 -6.74329e-14 0)
(2.9 5.44644e-14 0)
(2.9 6.45084e-15 0)
(2.9 6.94709e-14 0)
(2.9 4.40166e-14 0)
(2.9 5.58919e-14 0)
(2.9 9.26132e-14 0)
(2.9 4.85726e-14 0)
(2.9 8.27036e-14 0)
(2.9 1.46662e-13 0)
(2.9 1.14318e-13 0)
(2.9 3.2613e-14 0)
(2.9 -4.32989e-14 0)
(2.9 -2.20687e-15 0)
(2.9 -6.11991e-14 0)
(2.9 -3.12022e-14 0)
(2.9 -1.27122e-14 0)
(2.9 1.26411e-14 0)
(2.9 -8.78916e-14 0)
(2.9 -4.79556e-14 0)
(2.9 -1.00021e-14 0)
(2.9 -1.25126e-14 0)
(2.9 -5.94829e-14 0)
(2.9 1.68723e-14 0)
(2.9 3.29897e-14 0)
(2.9 3.07764e-14 0)
(2.9 3.26007e-14 0)
(2.9 -3.67788e-14 0)
(2.9 -2.00153e-14 0)
(2.9 -7.08882e-15 0)
(2.9 2.34809e-15 0)
(2.9 -2.23968e-15 0)
(2.9 -3.81681e-14 0)
(2.9 -1.61266e-14 0)
(2.9 4.73892e-14 0)
(2.9 2.22623e-14 0)
(2.9 -3.11917e-14 0)
(2.9 -9.90897e-15 0)
(2.9 -1.36882e-14 0)
(2.9 -1.29444e-14 0)
(2.9 -4.58499e-14 0)
(2.9 -8.80014e-14 0)
(2.9 -4.56051e-14 0)
(2.9 -1.14771e-14 0)
(2.9 -2.2558e-14 0)
(2.9 -2.81034e-14 0)
(2.9 7.66181e-15 0)
(2.9 -8.42887e-15 0)
(2.9 -7.69333e-14 0)
(2.9 3.09781e-14 0)
(2.9 5.32979e-14 0)
(2.9 3.02009e-14 0)
(2.9 1.99988e-14 0)
(2.9 5.43845e-14 0)
(2.9 2.87132e-15 0)
(2.9 -5.57827e-14 0)
(2.9 -1.73676e-14 0)
(2.9 -1.63942e-14 0)
(2.9 3.11149e-14 0)
(2.9 -1.7078e-14 0)
(2.9 -3.43572e-14 0)
(2.9 2.95e-14 0)
(2.9 -7.71509e-15 0)
(2.9 1.05092e-14 0)
(2.9 5.62214e-14 0)
(2.9 4.97994e-14 0)
(2.9 3.29543e-14 0)
(2.9 -8.80101e-15 0)
(2.9 -1.19396e-14 0)
(2.9 1.01597e-14 0)
(2.9 2.72632e-14 0)
(2.9 1.32706e-14 0)
(2.9 3.70811e-14 0)
(2.9 5.0004e-14 0)
(2.9 -2.05136e-14 0)
(2.9 -8.7706e-15 0)
(2.9 6.68259e-14 0)
(2.9 2.62732e-14 0)
(2.9 -4.75895e-14 0)
(2.9 -4.50629e-14 0)
(2.9 -4.99021e-14 0)
(2.9 6.35884e-15 0)
(2.9 -4.76372e-14 0)
(2.9 4.22181e-14 0)
(2.9 2.05783e-15 0)
(2.9 3.20059e-15 0)
(2.9 -1.78319e-14 0)
(2.9 -5.91155e-14 0)
(2.9 4.54668e-14 0)
(2.9 3.80961e-14 0)
(2.9 1.65039e-14 0)
(2.9 -2.80887e-15 0)
(2.9 6.5253e-16 0)
(2.9 -3.37978e-14 0)
(2.9 5.49281e-14 0)
(2.9 1.39446e-14 0)
(2.9 -4.21551e-14 0)
(2.9 -7.29797e-14 0)
(2.9 -2.35183e-14 0)
(2.9 -5.35641e-14 0)
(2.9 -4.27215e-14 0)
(2.9 -2.31724e-14 0)
(2.9 -1.7064e-14 0)
(2.9 -2.80582e-14 0)
(2.9 8.64102e-16 0)
(2.9 -6.05902e-14 0)
(2.9 1.0286e-14 0)
(2.9 -4.95663e-15 0)
(2.9 -6.98904e-14 0)
(2.9 3.67768e-14 0)
(2.9 9.00817e-14 0)
(2.9 3.41673e-14 0)
(2.9 2.54382e-14 0)
(2.9 -2.41409e-15 0)
(2.9 -2.8877e-14 0)
(2.9 -3.16643e-14 0)
(2.9 -2.16761e-14 0)
(2.9 -3.96945e-14 0)
(2.9 6.62401e-15 0)
(2.9 -2.35072e-14 0)
(2.9 3.45584e-14 0)
(2.9 -2.78023e-14 0)
(2.9 -3.53377e-14 0)
(2.9 -2.47129e-14 0)
(2.9 3.60362e-15 0)
(2.9 1.13236e-15 0)
(2.9 -2.94706e-14 0)
(2.9 -3.78817e-14 0)
(2.9 -7.81931e-14 0)
(2.9 -6.1616e-14 0)
(2.9 -6.41461e-14 0)
(2.9 -4.33836e-14 0)
(2.9 5.58564e-14 0)
(2.9 1.01106e-13 0)
(2.9 4.91786e-14 0)
(2.9 3.88754e-14 0)
(2.9 5.88373e-14 0)
(2.9 8.0775e-14 0)
(2.9 2.86171e-14 0)
(2.9 2.35499e-14 0)
(2.9 -5.93634e-14 0)
(2.9 -1.67457e-14 0)
(2.9 -5.43485e-14 0)
(2.9 7.26961e-15 0)
(2.9 -3.76503e-14 0)
(2.9 -3.12119e-14 0)
(2.9 -9.75017e-14 0)
(2.9 -3.44053e-14 0)
(2.9 6.7184e-14 0)
(2.9 4.32164e-14 0)
(2.9 -2.00814e-14 0)
(2.9 -2.7035e-14 0)
(2.9 -2.30473e-14 0)
(2.9 -2.5111e-14 0)
(2.9 -7.62082e-15 0)
(2.9 4.61654e-14 0)
(2.9 -2.91339e-14 0)
(2.9 -5.08607e-14 0)
(2.9 -2.00887e-14 0)
(2.9 -2.03735e-14 0)
(2.9 -5.29233e-14 0)
(2.9 2.4409e-14 0)
(2.9 4.33948e-14 0)
(2.9 -2.19508e-14 0)
(2.9 2.82703e-15 0)
(2.9 -1.57165e-15 0)
(2.9 -7.71315e-15 0)
(2.9 1.72354e-14 0)
(2.9 -7.34323e-16 0)
(2.9 2.80572e-14 0)
(2.9 7.67146e-14 0)
(2.9 1.53414e-14 0)
(2.9 6.51212e-14 0)
(2.9 -2.52817e-14 0)
(2.9 -3.64247e-14 0)
(2.9 4.00351e-14 0)
(2.9 2.54403e-14 0)
(2.9 -4.25677e-14 0)
(2.9 -5.52147e-14 0)
(2.9 -1.8689e-14 0)
(2.9 7.43923e-14 0)
(2.9 2.65365e-14 0)
(2.9 2.74665e-14 0)
(2.9 -2.25647e-14 0)
(2.9 -1.49585e-14 0)
(2.9 -2.07322e-14 0)
(2.9 -5.62529e-14 0)
(2.9 -1.35463e-14 0)
(2.9 -2.2775e-14 0)
(2.9 -9.30602e-15 0)
(2.9 -5.49133e-14 0)
(2.9 -6.87694e-14 0)
(2.9 1.92331e-14 0)
(2.9 3.46427e-14 0)
(2.9 1.6564e-14 0)
(2.9 3.21089e-14 0)
(2.9 3.3867e-14 0)
(2.9 5.31442e-14 0)
(2.9 4.56992e-14 0)
(2.9 5.10697e-14 0)
(2.9 -2.87712e-14 0)
(2.9 -1.99448e-14 0)
(2.9 -2.09126e-14 0)
(2.9 -2.96739e-14 0)
(2.9 -5.00197e-14 0)
(2.9 -8.50716e-15 0)
(2.9 -2.28272e-14 0)
(2.9 -3.8416e-14 0)
(2.9 -2.35303e-14 0)
(2.9 -1.9985e-14 0)
(2.9 -2.41109e-14 0)
(2.9 -1.94871e-14 0)
(2.9 -4.12767e-14 0)
(2.9 -1.1498e-14 0)
(2.9 -6.31432e-15 0)
(2.9 4.96905e-14 0)
(2.9 4.56247e-14 0)
(2.9 -4.28356e-14 0)
(2.9 -9.02408e-14 0)
(2.9 -5.17587e-14 0)
(2.9 -3.04337e-14 0)
(2.9 1.83516e-14 0)
(2.9 6.17823e-14 0)
(2.9 1.25267e-15 0)
(2.9 -7.34392e-15 0)
(2.9 5.04564e-15 0)
(2.9 -8.09913e-15 0)
(2.9 -1.12397e-14 0)
(2.9 -8.97702e-15 0)
(2.9 -2.75067e-15 0)
(2.9 -2.08814e-14 0)
(2.9 -9.84677e-16 0)
(2.9 -3.15944e-15 0)
(2.9 -2.40889e-14 0)
(2.9 -8.75002e-15 0)
(2.9 4.65214e-14 0)
(2.9 1.11022e-14 0)
(2.9 -7.93531e-15 0)