/*--------------------------------*- C++ -*----------------------------------*\
| =========                 |                                                 |
| \\      /  F ield         | OpenFOAM: The Open Source CFD Toolbox           |
|  \\    /   O peration     | Version:  2412                                  |
|   \\  /    A nd           | Website:  www.openfoam.com                      |
|    \\/     M anipulation  |                                                 |
\*---------------------------------------------------------------------------*/
FoamFile
{
    version     2.0;
    format      ascii;
    arch        "LSB;label=32;scalar=64";
    class       volScalarField;
    location    "0.0440154";
    object      rhoY_Y_N2;
}
// * * * * * * * * * * * * * * * * * * * * * * * * * * * * * * * * * * * * * //

dimensions      [1 -3 0 0 0 0 0];

internalField   nonuniform List<scalar> 
100
(
0.220591
0.220678
0.220796
0.220984
0.221134
0.220942
0.221091
0.232014
0.405732
0.540256
0.535488
0.512872
0.513525
0.528863
0.557836
0.565784
0.570613
0.57508
0.574129
0.550314
0.534577
0.536227
0.540669
0.548268
0.570805
0.589572
0.595721
0.600463
0.601146
0.593266
0.59108
0.595355
0.602578
0.61535
0.623174
0.627903
0.62313
0.615873
0.618324
0.624366
0.639514
0.651942
0.658193
0.658206
0.647722
0.645411
0.650873
0.663646
0.691035
0.966108
0.769084
0.762208
0.73367
0.714121
0.711883
0.715656
0.725486
0.744037
0.756652
0.763343
0.769084
0.76936
0.769125
0.773008
0.777767
0.779333
0.777673
0.782043
0.787631
0.797335
0.805956
0.811354
0.809191
0.804249
0.809757
0.818289
0.850683
0.884256
0.896339
0.905929
0.900561
0.872722
0.83947
0.821132
0.780868
0.680869
0.491689
0.232487
0.0260127
0.0104881
-0.00515438
-0.00101989
0.000369793
-0.000147496
6.42281e-07
-2.8804e-06
-1.28953e-07
-4.33778e-08
-4.00737e-09
-2.01132e-10
)
;

boundaryField
{
    sides
    {
        type            calculated;
        value           nonuniform List<scalar> 2(0 1.12308);
    }
    empty
    {
        type            empty;
    }
}


// ************************************************************************* //
