/*--------------------------------*- C++ -*----------------------------------*\
| =========                 |                                                 |
| \\      /  F ield         | OpenFOAM: The Open Source CFD Toolbox           |
|  \\    /   O peration     | Version:  2412                                  |
|   \\  /    A nd           | Website:  www.openfoam.com                      |
|    \\/     M anipulation  |                                                 |
\*---------------------------------------------------------------------------*/
FoamFile
{
    version     2.0;
    format      ascii;
    arch        "LSB;label=32;scalar=64";
    class       volScalarField;
    location    "0.0181103";
    object      p;
}
// * * * * * * * * * * * * * * * * * * * * * * * * * * * * * * * * * * * * * //

dimensions      [1 -1 -2 0 0 0 0];

internalField   nonuniform List<scalar> 
100
(
62395.2
62304.6
62142.9
62122.7
62075.7
62239.3
62660.6
63409.9
64338.6
65057.7
65355.4
65134.5
64156.9
62721
61248.8
59951
58764.4
57795.1
56610.8
55800.2
54406.3
53882.5
52236.2
52003.5
50211.4
50074.9
48373.2
48149.6
46650.5
46265.5
45001.5
44443
43365.9
42697.2
41763.7
41026
40173.2
39420.9
38636.9
37898
37144.9
36415.9
35707.3
35058.4
34391.3
33714.2
33149.3
32623.6
32073.5
31753.7
31612.1
31640.6
31835.1
31933.1
31654.7
31483.3
31880.1
32322.2
32065.7
31116.5
31050.3
32336
32784.5
31964.6
30620.6
30835.2
32744.7
33083.6
32083.8
30831.2
30799.5
32518.7
33122.7
32517.5
30932.8
31034
31881.5
33030.1
32881.2
31755.8
30921.8
33114.7
69730
88724
86483.5
98279.3
94049.9
92304.6
91349.5
91658.6
89909.7
90820.7
89801.6
93995.4
92359.4
95524.2
93818.2
97788.6
98031.5
101924
)
;

boundaryField
{
    sides
    {
        type            zeroGradient;
    }
    empty
    {
        type            empty;
    }
}


// ************************************************************************* //
