/*--------------------------------*- C++ -*----------------------------------*\
| =========                 |                                                 |
| \\      /  F ield         | OpenFOAM: The Open Source CFD Toolbox           |
|  \\    /   O peration     | Version:  2412                                  |
|   \\  /    A nd           | Website:  www.openfoam.com                      |
|    \\/     M anipulation  |                                                 |
\*---------------------------------------------------------------------------*/
FoamFile
{
    version     2.0;
    format      ascii;
    arch        "LSB;label=32;scalar=64";
    class       surfaceScalarField;
    location    "0.00194725";
    object      phiRhoY_Y_N2;
}
// * * * * * * * * * * * * * * * * * * * * * * * * * * * * * * * * * * * * * //

dimensions      [1 0 -1 0 0 0 0];

internalField   nonuniform List<scalar> 
99
(
-1.13687e-13
-2.27374e-13
3.41061e-13
4.54747e-13
2.27374e-13
-1.13687e-13
-1.13687e-13
-1.13687e-13
0
0
1.13687e-13
1.13687e-13
-3.41061e-13
-2.27374e-13
1.13687e-13
2.27374e-13
2.27374e-13
-1.13687e-13
-2.27374e-13
0
-1.13687e-13
0
0
1.13687e-13
2.27374e-13
3.41061e-13
3.41061e-13
3.41061e-13
0
2.27374e-13
2.27374e-13
5.68434e-13
6.82121e-13
2.27374e-13
-4.54747e-13
-6.82121e-13
-6.82121e-13
7.50333e-11
7.81683e-08
5.24083e-05
0.0206159
2.2634
37.4391
142.57
263.602
354.753
418.338
480.071
520.149
516.672
507.881
522.664
467.033
300.432
142.981
54.5844
16.8251
3.62889
0.251436
0.000116959
6.66969e-13
2.40108e-27
1.9415e-47
2.7167e-71
0
0
0
0
0
0
0
0
0
0
0
0
0
0
0
0
0
0
0
0
0
0
0
0
0
0
0
0
0
0
0
0
0
0
0
)
;

boundaryField
{
    sides
    {
        type            calculated;
        value           uniform 0;
    }
    empty
    {
        type            empty;
    }
}


// ************************************************************************* //
