/*--------------------------------*- C++ -*----------------------------------*\
| =========                 |                                                 |
| \\      /  F ield         | OpenFOAM: The Open Source CFD Toolbox           |
|  \\    /   O peration     | Version:  2412                                  |
|   \\  /    A nd           | Website:  www.openfoam.com                      |
|    \\/     M anipulation  |                                                 |
\*---------------------------------------------------------------------------*/
FoamFile
{
    version     2.0;
    format      ascii;
    arch        "LSB;label=32;scalar=64";
    class       volScalarField;
    location    "0.0341473";
    object      p;
}
// * * * * * * * * * * * * * * * * * * * * * * * * * * * * * * * * * * * * * //

dimensions      [1 -1 -2 0 0 0 0];

internalField   nonuniform List<scalar> 
100
(
19079.7
19085.3
19065.1
19098.2
19036.9
19124
18984.3
19168.2
18909.8
19219.9
18839.1
19241.5
18800.6
19214.4
18805.7
19151.9
18834.8
19077.6
18861.3
19006.9
18872.7
18947.7
18868.2
18899
18850.3
18855.1
18820.9
18813
18786.8
18776.6
18756
18744.8
18726.2
18710.6
18697.3
18680.6
18681.6
18669.6
18664.5
18672.3
18680.3
18715.9
18756.5
18878.1
21000
48520.1
66185.9
66603.5
63609.7
63577.4
64634.1
65652.7
66959
68686
69981.9
70421.4
70520.2
70210.8
71881.8
72369.6
74320.7
75193
76514.4
78430.9
76194.5
78867.1
74824
79594.4
78280.8
80995.1
83316.2
80866.8
85707.9
82652.3
87979.7
85424.1
87238
87934.7
88157.9
88839.1
91268.3
97827.9
100371
102141
100779
98968.5
96491.6
96525.5
96972.7
98521
99215.8
99319.8
96668.1
96192.7
95165
96832.9
96970.3
98673.6
98081.7
98524.5
)
;

boundaryField
{
    sides
    {
        type            zeroGradient;
    }
    empty
    {
        type            empty;
    }
}


// ************************************************************************* //
