/*--------------------------------*- C++ -*----------------------------------*\
| =========                 |                                                 |
| \\      /  F ield         | OpenFOAM: The Open Source CFD Toolbox           |
|  \\    /   O peration     | Version:  2412                                  |
|   \\  /    A nd           | Website:  www.openfoam.com                      |
|    \\/     M anipulation  |                                                 |
\*---------------------------------------------------------------------------*/
FoamFile
{
    version     2.0;
    format      ascii;
    arch        "LSB;label=32;scalar=64";
    class       surfaceScalarField;
    location    "0.0341473";
    object      phiRhoY_Y_N2;
}
// * * * * * * * * * * * * * * * * * * * * * * * * * * * * * * * * * * * * * //

dimensions      [1 0 -1 0 0 0 0];

internalField   nonuniform List<scalar> 
99
(
4.9058
9.80818
14.7129
19.6214
24.54
29.4714
34.4078
39.3465
44.2676
49.1884
54.0967
58.9925
63.8889
68.7774
73.6788
78.5791
83.484
88.3839
93.2747
98.1549
103.021
107.885
112.733
117.564
122.359
127.12
131.855
136.593
141.347
146.124
150.906
155.678
160.43
165.151
169.835
174.467
179.089
183.728
188.277
192.747
197.196
201.537
206.375
207.975
106.839
-357.5
-381.244
-330.495
-293.746
-289.38
-285.749
-285.969
-292.125
-299.423
-301.355
-289.121
-264.616
-254.863
-252.465
-252.556
-254.578
-257.325
-259.221
-245.938
-216.338
-189.143
-171.229
-167.04
-169.444
-177.693
-181.234
-171.792
-156.541
-142.05
-131.532
-124.248
-119.188
-119.847
-107.944
-68.7677
-3.33869
40.5272
40.0177
39.039
32.7651
18.9615
12.0722
2.66886
-12.8862
-8.23775
-3.58084
-0.421709
0.0182289
0.0152503
0.00338053
0.000347107
7.608e-06
-5.73165e-08
0
)
;

boundaryField
{
    sides
    {
        type            calculated;
        value           uniform 0;
    }
    empty
    {
        type            empty;
    }
}


// ************************************************************************* //
