/*--------------------------------*- C++ -*----------------------------------*\
| =========                 |                                                 |
| \\      /  F ield         | OpenFOAM: The Open Source CFD Toolbox           |
|  \\    /   O peration     | Version:  2412                                  |
|   \\  /    A nd           | Website:  www.openfoam.com                      |
|    \\/     M anipulation  |                                                 |
\*---------------------------------------------------------------------------*/
FoamFile
{
    version     2.0;
    format      ascii;
    arch        "LSB;label=32;scalar=64";
    class       volVectorField;
    location    "0.00010785";
    object      U;
}
// * * * * * * * * * * * * * * * * * * * * * * * * * * * * * * * * * * * * * //

dimensions      [0 1 -1 0 0 0 0];

internalField   nonuniform List<vector> 
1800
(
(2.9 5.1228e-15 0)
(2.9 5.95079e-14 0)
(2.9 -3.25567e-14 0)
(2.9 2.38481e-14 0)
(2.9 2.71495e-14 0)
(2.9 1.88117e-14 0)
(2.9 -1.31955e-14 0)
(2.9 -1.78009e-14 0)
(2.9 -1.34523e-14 0)
(2.9 1.45171e-14 0)
(2.9 2.91069e-14 0)
(2.9 1.40575e-14 0)
(2.9 1.92373e-16 0)
(2.9 -1.78429e-14 0)
(2.9 -2.67513e-14 0)
(2.9 1.74642e-14 0)
(2.9 1.30947e-14 0)
(2.9 -2.86686e-14 0)
(2.9 -5.30591e-14 0)
(2.9 -4.48991e-14 0)
(2.9 -3.10254e-14 0)
(2.9 -2.69994e-14 0)
(2.9 -9.50299e-15 0)
(2.9 -1.48355e-14 0)
(2.9 -8.49104e-15 0)
(2.9 -1.96288e-14 0)
(2.9 -2.52067e-14 0)
(2.9 -1.05688e-16 0)
(2.9 4.20067e-16 0)
(2.9 -6.21831e-15 0)
(2.9 -2.05653e-14 0)
(2.9 -6.6406e-15 0)
(2.9 -1.74762e-14 0)
(2.9 -2.61331e-14 0)
(2.9 -3.96922e-14 0)
(2.9 -4.97752e-14 0)
(2.9 -1.98216e-14 0)
(2.9 -1.79795e-14 0)
(2.9 -4.56137e-14 0)
(2.9 -3.36627e-14 0)
(2.9 -1.75092e-14 0)
(2.9 3.97296e-14 0)
(2.9 1.31803e-14 0)
(2.9 -3.34029e-14 0)
(2.9 -1.08877e-14 0)
(2.9 -3.00702e-14 0)
(2.9 -4.80271e-14 0)
(2.9 -3.56819e-14 0)
(2.9 -3.30496e-14 0)
(2.9 -3.73249e-14 0)
(2.9 -3.45602e-14 0)
(2.9 -1.27492e-14 0)
(2.9 -4.19049e-15 0)
(2.9 -2.97087e-14 0)
(2.9 1.10013e-14 0)
(2.9 -1.44104e-14 0)
(2.9 -6.69417e-15 0)
(2.9 -2.4352e-14 0)
(2.9 -1.63875e-15 0)
(2.9 -1.15395e-14 0)
(2.9 1.1521e-14 0)
(2.9 8.53742e-16 0)
(2.9 -9.50222e-14 0)
(2.9 -2.25719e-15 0)
(2.9 4.86478e-14 0)
(2.9 3.14311e-14 0)
(2.9 -8.00195e-15 0)
(2.9 1.3597e-14 0)
(2.9 -2.46063e-14 0)
(2.9 -5.79118e-15 0)
(2.9 2.27642e-14 0)
(2.9 7.04914e-15 0)
(2.9 -1.12413e-14 0)
(2.9 -2.28417e-14 0)
(2.9 1.0425e-14 0)
(2.9 4.68146e-14 0)
(2.9 5.90868e-14 0)
(2.9 -9.15429e-14 0)
(2.9 -6.15618e-14 0)
(2.9 -1.09806e-13 0)
(2.9 -8.85913e-14 0)
(2.9 -8.26954e-14 0)
(2.9 -3.14854e-14 0)
(2.9 2.11341e-15 0)
(2.9 -4.63129e-15 0)
(2.9 -6.86124e-14 0)
(2.9 -3.58516e-14 0)
(2.9 2.5775e-15 0)
(2.9 -6.87641e-15 0)
(2.9 -3.22638e-14 0)
(2.9 -7.89314e-14 0)
(2.9 -3.12699e-14 0)
(2.9 -6.8769e-14 0)
(2.9 -8.651e-14 0)
(2.9 -1.4309e-13 0)
(2.9 -1.57436e-13 0)
(2.9 -6.75189e-14 0)
(2.9 -5.65325e-14 0)
(2.9 -5.25421e-14 0)
(2.9 -3.4625e-14 0)
(2.9 -5.91951e-14 0)
(2.9 6.55604e-14 0)
(2.9 8.3669e-15 0)
(2.9 -6.17946e-15 0)
(2.9 -4.4788e-14 0)
(2.9 -1.01812e-13 0)
(2.9 -1.6575e-13 0)
(2.9 -1.22739e-13 0)
(2.9 -6.70089e-14 0)
(2.9 -8.62282e-14 0)
(2.9 -6.3911e-14 0)
(2.9 -3.4243e-14 0)
(2.9 6.90279e-16 0)
(2.9 -7.22822e-14 0)
(2.9 -5.08388e-14 0)
(2.9 -6.73138e-14 0)
(2.9 -1.07413e-14 0)
(2.9 -5.92336e-14 0)
(2.9 6.77818e-15 0)
(2.9 -4.35248e-14 0)
(2.9 -4.33704e-14 0)
(2.9 -7.6966e-14 0)
(2.9 -1.02024e-13 0)
(2.9 -7.96279e-14 0)
(2.9 -6.29933e-15 0)
(2.9 -8.48003e-15 0)
(2.9 -1.25915e-14 0)
(2.9 3.38849e-14 0)
(2.9 3.56389e-14 0)
(2.9 2.04166e-14 0)
(2.9 8.8236e-14 0)
(2.9 4.41664e-15 0)
(2.9 5.84194e-14 0)
(2.9 1.42298e-14 0)
(2.9 4.38695e-14 0)
(2.9 4.94924e-14 0)
(2.9 6.18971e-14 0)
(2.9 1.40489e-14 0)
(2.9 -1.3329e-14 0)
(2.9 -5.56225e-14 0)
(2.9 -1.01851e-13 0)
(2.9 -1.02233e-13 0)
(2.9 -3.07511e-14 0)
(2.9 -2.6598e-14 0)
(2.9 -2.69458e-14 0)
(2.9 -3.07581e-14 0)
(2.9 3.23798e-14 0)
(2.9 1.4113e-14 0)
(2.9 1.65836e-14 0)
(2.9 2.07448e-14 0)
(2.9 -8.78903e-14 0)
(2.9 -1.14336e-13 0)
(2.9 -5.27817e-14 0)
(2.9 -6.97056e-14 0)
(2.9 -1.04669e-13 0)
(2.9 -1.17935e-13 0)
(2.9 -3.82758e-14 0)
(2.9 -6.76997e-14 0)
(2.9 -8.00621e-14 0)
(2.9 -6.54804e-14 0)
(2.9 -1.44829e-13 0)
(2.9 -3.60936e-14 0)
(2.9 -1.91182e-14 0)
(2.9 -8.18296e-15 0)
(2.9 -3.43113e-14 0)
(2.9 -1.15853e-13 0)
(2.9 -1.69775e-13 0)
(2.9 -8.60336e-14 0)
(2.9 -5.34606e-14 0)
(2.9 -1.46603e-14 0)
(2.9 -5.99814e-14 0)
(2.9 -4.74428e-14 0)
(2.9 -4.2914e-15 0)
(2.9 -5.72814e-14 0)
(2.9 -4.77488e-14 0)
(2.9 -3.10744e-14 0)
(2.9 -3.30434e-14 0)
(2.9 -2.29586e-14 0)
(2.9 8.7294e-15 0)
(2.9 2.37208e-14 0)
(2.9 -3.21998e-14 0)
(2.9 -4.35642e-14 0)
(2.9 -7.40646e-14 0)
(2.9 -1.17147e-13 0)
(2.9 -1.25964e-14 0)
(2.9 -2.08819e-14 0)
(2.9 -2.28841e-14 0)
(2.9 -3.37748e-14 0)
(2.9 2.53712e-14 0)
(2.9 6.42079e-14 0)
(2.9 7.72722e-14 0)
(2.9 -2.95168e-14 0)
(2.9 1.36804e-14 0)
(2.9 -6.96929e-15 0)
(2.9 3.02715e-15 0)
(2.9 4.04608e-14 0)
(2.9 3.68272e-14 0)
(2.9 4.01361e-14 0)
(2.9 -1.51341e-14 0)
(2.9 -3.6945e-14 0)
(2.9 -6.67534e-14 0)
(2.9 -5.96109e-14 0)
(2.9 -2.74688e-14 0)
(2.9 -1.69851e-15 0)
(2.9 -1.08034e-14 0)
(2.9 -2.11523e-14 0)
(2.9 3.81726e-14 0)
(2.9 6.36681e-15 0)
(2.9 4.92531e-14 0)
(2.9 1.01596e-14 0)
(2.9 -6.49635e-14 0)
(2.9 -7.6985e-14 0)
(2.9 -1.24607e-13 0)
(2.9 -9.61529e-14 0)
(2.9 -9.49146e-14 0)
(2.9 -6.77103e-14 0)
(2.9 -4.00148e-14 0)
(2.9 -3.80045e-14 0)
(2.9 -7.26373e-14 0)
(2.9 -8.57098e-14 0)
(2.9 -1.70827e-13 0)
(2.9 -5.56864e-14 0)
(2.9 -1.89452e-14 0)
(2.9 1.77736e-14 0)
(2.9 -2.79838e-15 0)
(2.9 -8.43163e-14 0)
(2.9 -1.13883e-13 0)
(2.9 -7.37034e-14 0)
(2.9 -3.01596e-14 0)
(2.9 -2.49765e-14 0)
(2.9 -2.98266e-14 0)
(2.9 -6.28005e-14 0)
(2.9 -7.49825e-14 0)
(2.9 -6.34044e-14 0)
(2.9 -6.33554e-14 0)
(2.9 -2.10778e-14 0)
(2.9 -1.9896e-14 0)
(2.9 1.70648e-14 0)
(2.9 1.00159e-13 0)
(2.9 8.18229e-14 0)
(2.9 1.22893e-14 0)
(2.9 -5.55576e-14 0)
(2.9 -5.37926e-14 0)
(2.9 -7.63947e-14 0)
(2.9 -5.1005e-15 0)
(2.9 -2.39347e-14 0)
(2.9 -2.01175e-14 0)
(2.9 -3.60578e-14 0)
(2.9 1.49447e-14 0)
(2.9 1.01422e-13 0)
(2.9 1.08554e-14 0)
(2.9 -6.93803e-14 0)
(2.9 -3.87462e-14 0)
(2.9 -3.71565e-14 0)
(2.9 -9.30262e-14 0)
(2.9 -3.27837e-15 0)
(2.9 9.64587e-15 0)
(2.9 -2.70607e-14 0)
(2.9 -1.0358e-14 0)
(2.9 -7.52545e-14 0)
(2.9 -2.41019e-14 0)
(2.9 -3.29468e-14 0)
(2.9 -2.45801e-14 0)
(2.9 -4.62117e-14 0)
(2.9 8.6453e-16 0)
(2.9 -2.91884e-14 0)
(2.9 2.58788e-14 0)
(2.9 -2.16719e-14 0)
(2.9 -1.43751e-15 0)
(2.9 -2.04836e-14 0)
(2.9 -4.25926e-14 0)
(2.9 -7.08636e-14 0)
(2.9 -7.23866e-14 0)
(2.9 -7.23124e-14 0)
(2.9 -9.91467e-14 0)
(2.9 -4.62157e-14 0)
(2.9 -3.21821e-14 0)
(2.9 -9.90673e-15 0)
(2.9 2.39929e-15 0)
(2.9 -6.49078e-14 0)
(2.9 -3.66407e-14 0)
(2.9 3.97755e-14 0)
(2.9 -1.8203e-14 0)
(2.9 7.93942e-14 0)
(2.9 -4.57274e-15 0)
(2.9 -2.10202e-15 0)
(2.9 -4.60498e-14 0)
(2.9 -5.03291e-14 0)
(2.9 -4.5015e-14 0)
(2.9 -1.96275e-14 0)
(2.9 1.53426e-14 0)
(2.9 -4.62862e-14 0)
(2.9 -8.10672e-14 0)
(2.9 -6.13658e-14 0)
(2.9 -1.11548e-13 0)
(2.9 -3.7525e-14 0)
(2.9 1.95116e-14 0)
(2.9 6.95124e-14 0)
(2.9 1.00299e-13 0)
(2.9 -1.26156e-14 0)
(2.9 1.60631e-14 0)
(2.9 -5.09614e-15 0)
(2.9 -3.2393e-14 0)
(2.9 -3.22862e-15 0)
(2.9 -1.89402e-14 0)
(2.9 -9.93132e-14 0)
(2.9 -6.63302e-14 0)
(2.9 -1.41451e-14 0)
(2.9 1.64555e-14 0)
(2.9 9.48042e-14 0)
(2.9 2.50145e-14 0)
(2.9 5.15308e-14 0)
(2.9 3.09292e-14 0)
(2.9 -5.66462e-15 0)
(2.9 -6.5536e-14 0)
(2.9 -3.22121e-14 0)
(2.9 -5.54053e-15 0)
(2.9 -2.33712e-14 0)
(2.9 -1.49987e-14 0)
(2.9 -1.41381e-14 0)
(2.9 -2.48626e-14 0)
(2.9 -4.39505e-14 0)
(2.9 -3.33629e-14 0)
(2.9 -1.43005e-15 0)
(2.9 2.35056e-14 0)
(2.9 4.69241e-14 0)
(2.9 2.09128e-14 0)
(2.9 -1.15693e-14 0)
(2.9 -5.98801e-14 0)
(2.9 7.66773e-14 0)
(2.9 -4.61587e-14 0)
(2.9 1.30587e-14 0)
(2.9 1.40254e-14 0)
(2.9 -5.69299e-15 0)
(2.9 -3.25784e-14 0)
(2.9 -8.79033e-14 0)
(2.9 -7.81035e-14 0)
(2.9 2.06632e-14 0)
(2.9 2.42369e-14 0)
(2.9 -2.46156e-14 0)
(2.9 4.73157e-14 0)
(2.9 -2.46603e-15 0)
(2.9 3.42017e-14 0)
(2.9 2.18945e-14 0)
(2.9 1.19632e-14 0)
(2.9 -1.04299e-14 0)
(2.9 -6.8725e-14 0)
(2.9 8.63955e-15 0)
(2.9 4.52985e-14 0)
(2.9 3.35173e-14 0)
(2.9 7.59888e-14 0)
(2.9 3.05848e-14 0)
(2.9 -1.24319e-14 0)
(2.9 -1.8029e-14 0)
(2.9 -2.62876e-14 0)
(2.9 -2.16281e-14 0)
(2.9 -1.66043e-14 0)
(2.9 9.71311e-14 0)
(2.9 2.50019e-14 0)
(2.9 -1.03121e-13 0)
(2.9 7.29746e-15 0)
(2.9 4.46016e-14 0)
(2.9 2.97899e-14 0)
(2.9 -1.86118e-14 0)
(2.9 -4.74606e-14 0)
(2.9 -1.02971e-13 0)
(2.9 -5.43575e-14 0)
(2.9 -1.34752e-14 0)
(2.9 1.93206e-14 0)
(2.9 3.25559e-14 0)
(2.9 -4.19309e-15 0)
(2.9 6.26978e-14 0)
(2.9 5.46704e-14 0)
(2.9 -3.27774e-14 0)
(2.9 -1.07355e-14 0)
(2.9 -6.73863e-14 0)
(2.9 -2.09139e-14 0)
(2.9 -2.87179e-14 0)
(2.9 3.15059e-14 0)
(2.9 5.63722e-14 0)
(2.9 3.11949e-14 0)
(2.9 -3.81595e-14 0)
(2.9 -1.1657e-14 0)
(2.9 -3.05837e-14 0)
(2.9 -1.01547e-14 0)
(2.9 4.62138e-14 0)
(2.9 3.99661e-14 0)
(2.9 2.44513e-14 0)
(2.9 -7.13507e-14 0)
(2.9 5.01235e-14 0)
(2.9 -9.55362e-15 0)
(2.9 6.02441e-14 0)
(2.9 4.49859e-14 0)
(2.9 2.02223e-14 0)
(2.9 -5.82485e-14 0)
(2.9 -7.27784e-14 0)
(2.9 -3.45904e-15 0)
(2.9 2.24222e-14 0)
(2.9 3.3403e-15 0)
(2.9 -2.63505e-14 0)
(2.9 1.0458e-13 0)
(2.9 5.39056e-14 0)
(2.9 4.43422e-14 0)
(2.9 -2.65334e-14 0)
(2.9 2.96746e-14 0)
(2.9 -4.17638e-15 0)
(2.9 8.36636e-16 0)
(2.9 -1.96957e-15 0)
(2.9 -1.29862e-15 0)
(2.9 4.79292e-14 0)
(2.9 2.26693e-14 0)
(2.9 -5.32538e-15 0)
(2.9 2.19526e-14 0)
(2.9 -4.00079e-14 0)
(2.9 -6.49789e-15 0)
(2.9 2.13417e-14 0)
(2.9 -5.36802e-15 0)
(2.9 -3.99252e-15 0)
(2.9 -3.72639e-14 0)
(2.9 -1.08938e-13 0)
(2.9 1.84834e-15 0)
(2.9 4.92402e-14 0)
(2.9 6.1761e-14 0)
(2.9 -2.6121e-14 0)
(2.9 -7.78767e-14 0)
(2.9 -4.75164e-14 0)
(2.9 5.66497e-14 0)
(2.9 2.57666e-14 0)
(2.9 3.05192e-14 0)
(2.9 -1.9968e-15 0)
(2.9 3.65416e-14 0)
(2.9 2.2296e-14 0)
(2.9 4.34834e-14 0)
(2.9 4.93713e-14 0)
(2.9 6.5341e-14 0)
(2.9 -5.20734e-14 0)
(2.9 6.28772e-15 0)
(2.9 -9.58982e-15 0)
(2.9 5.11117e-14 0)
(2.9 4.28687e-14 0)
(2.9 1.06702e-13 0)
(2.9 8.25208e-14 0)
(2.9 2.00949e-14 0)
(2.9 2.47657e-14 0)
(2.9 9.86158e-15 0)
(2.9 1.44678e-14 0)
(2.9 6.61599e-14 0)
(2.9 2.87923e-14 0)
(2.9 2.2261e-14 0)
(2.9 4.71665e-14 0)
(2.9 1.10214e-14 0)
(2.9 4.33029e-14 0)
(2.9 6.32885e-14 0)
(2.9 4.18367e-14 0)
(2.9 3.11905e-14 0)
(2.9 2.46651e-14 0)
(2.9 6.04447e-14 0)
(2.9 9.44139e-15 0)
(2.9 -3.09742e-14 0)
(2.9 -7.62871e-14 0)
(2.9 1.0209e-13 0)
(2.9 1.41504e-13 0)
(2.9 1.01433e-13 0)
(2.9 -6.12545e-15 0)
(2.9 3.68827e-14 0)
(2.9 -2.86592e-14 0)
(2.9 7.81973e-14 0)
(2.9 4.0197e-14 0)
(2.9 3.53028e-14 0)
(2.9 4.32667e-14 0)
(2.9 4.67565e-14 0)
(2.9 4.58229e-14 0)
(2.9 8.70335e-14 0)
(2.9 1.63115e-14 0)
(2.9 2.63035e-14 0)
(2.9 2.62378e-14 0)
(2.9 1.06317e-14 0)
(2.9 -4.81375e-14 0)
(2.9 -7.39253e-14 0)
(2.9 -1.0106e-13 0)
(2.9 2.7309e-15 0)
(2.9 7.0244e-14 0)
(2.9 1.7472e-14 0)
(2.9 1.57822e-14 0)
(2.9 -3.92505e-15 0)
(2.9 -2.51795e-14 0)
(2.9 -1.75032e-14 0)
(2.9 2.63609e-14 0)
(2.9 4.68234e-14 0)
(2.9 5.48086e-14 0)
(2.9 3.58017e-14 0)
(2.9 2.85557e-15 0)
(2.9 5.67829e-14 0)
(2.9 8.18737e-14 0)
(2.9 2.57841e-14 0)
(2.9 -2.04169e-15 0)
(2.9 -9.83274e-15 0)
(2.9 -1.60681e-14 0)
(2.9 3.77697e-14 0)
(2.9 8.87405e-14 0)
(2.9 6.90561e-14 0)
(2.9 9.19674e-14 0)
(2.9 2.37293e-15 0)
(2.9 5.7563e-14 0)
(2.9 5.13953e-14 0)
(2.9 4.0215e-14 0)
(2.9 3.46476e-14 0)
(2.9 2.42331e-14 0)
(2.9 6.92502e-14 0)
(2.9 5.65225e-14 0)
(2.9 5.30285e-15 0)
(2.9 -7.31331e-15 0)
(2.9 3.12688e-14 0)
(2.9 3.08487e-14 0)
(2.9 5.0192e-14 0)
(2.9 9.68459e-14 0)
(2.9 5.51807e-14 0)
(2.9 9.25565e-15 0)
(2.9 2.13373e-14 0)
(2.9 -1.86242e-14 0)
(2.9 7.35277e-14 0)
(2.9 1.08363e-13 0)
(2.9 6.17786e-14 0)
(2.9 -5.75857e-15 0)
(2.9 -9.08686e-15 0)
(2.9 -2.44002e-14 0)
(2.9 4.2678e-14 0)
(2.9 6.81271e-14 0)
(2.9 8.20097e-14 0)
(2.9 8.18995e-15 0)
(2.9 3.80121e-14 0)
(2.9 1.01109e-13 0)
(2.9 2.84233e-14 0)
(2.9 4.66371e-14 0)
(2.9 2.80489e-14 0)
(2.9 3.93022e-14 0)
(2.9 2.93813e-14 0)
(2.9 -5.55982e-14 0)
(2.9 -5.71336e-14 0)
(2.9 -9.37207e-14 0)
(2.9 -1.90457e-14 0)
(2.9 7.76379e-16 0)
(2.9 2.20066e-15 0)
(2.9 6.33714e-14 0)
(2.9 4.96205e-14 0)
(2.9 8.31857e-14 0)
(2.9 -1.06904e-14 0)
(2.9 -3.63259e-14 0)
(2.9 2.26271e-14 0)
(2.9 6.31388e-15 0)
(2.9 2.25725e-14 0)
(2.9 1.44621e-14 0)
(2.9 -4.24472e-14 0)
(2.9 3.67051e-14 0)
(2.9 -4.25652e-15 0)
(2.9 -1.37901e-14 0)
(2.9 6.63392e-15 0)
(2.9 2.59678e-14 0)
(2.9 3.52363e-14 0)
(2.9 3.76248e-14 0)
(2.9 7.70215e-14 0)
(2.9 6.67831e-14 0)
(2.9 -1.87679e-14 0)
(2.9 4.08414e-14 0)
(2.9 5.49095e-14 0)
(2.9 2.34997e-14 0)
(2.9 3.88524e-15 0)
(2.9 1.7103e-14 0)
(2.9 6.67946e-14 0)
(2.9 -2.31826e-16 0)
(2.9 4.70202e-14 0)
(2.9 -4.11431e-14 0)
(2.9 -4.70127e-14 0)
(2.9 -1.66298e-14 0)
(2.9 2.79788e-14 0)
(2.9 1.22965e-13 0)
(2.9 4.87751e-14 0)
(2.9 -5.1167e-15 0)
(2.9 5.58108e-14 0)
(2.9 4.66154e-14 0)
(2.9 3.11957e-14 0)
(2.9 8.2314e-14 0)
(2.9 1.12073e-14 0)
(2.9 -4.61611e-14 0)
(2.9 -3.25658e-14 0)
(2.9 5.57954e-14 0)
(2.9 5.80672e-14 0)
(2.9 5.13429e-15 0)
(2.9 3.56105e-14 0)
(2.9 -2.87914e-14 0)
(2.9 2.46523e-15 0)
(2.9 4.98417e-14 0)
(2.9 3.61413e-16 0)
(2.9 2.16876e-14 0)
(2.9 2.55665e-14 0)
(2.9 1.88314e-14 0)
(2.9 4.09254e-14 0)
(2.9 8.39504e-15 0)
(2.9 -4.57544e-14 0)
(2.9 2.16251e-14 0)
(2.9 -1.72405e-14 0)
(2.9 -1.17042e-14 0)
(2.9 3.95464e-14 0)
(2.9 6.80426e-14 0)
(2.9 4.24977e-14 0)
(2.9 1.35014e-13 0)
(2.9 8.22202e-14 0)
(2.9 -6.27057e-16 0)
(2.9 -1.64114e-14 0)
(2.9 5.8771e-15 0)
(2.9 -5.86655e-14 0)
(2.9 -5.54389e-14 0)
(2.9 -1.29899e-13 0)
(2.9 -5.43902e-14 0)
(2.9 4.42488e-14 0)
(2.9 2.85684e-14 0)
(2.9 2.69485e-14 0)
(2.9 8.81031e-14 0)
(2.9 7.42091e-14 0)
(2.9 1.78926e-14 0)
(2.9 6.45813e-14 0)
(2.9 1.22142e-14 0)
(2.9 6.78234e-14 0)
(2.9 1.59583e-14 0)
(2.9 1.87304e-14 0)
(2.9 3.49275e-14 0)
(2.9 1.49303e-14 0)
(2.9 -1.27446e-14 0)
(2.9 7.1155e-14 0)
(2.9 2.28115e-14 0)
(2.9 2.13247e-14 0)
(2.9 -1.04783e-14 0)
(2.9 -6.65231e-14 0)
(2.9 -2.78965e-14 0)
(2.9 7.20749e-14 0)
(2.9 1.17784e-13 0)
(2.9 1.29368e-14 0)
(2.9 -1.40361e-14 0)
(2.9 1.22821e-14 0)
(2.9 4.52941e-14 0)
(2.9 -3.60955e-15 0)
(2.9 7.16644e-15 0)
(2.9 3.11906e-14 0)
(2.9 -2.99643e-14 0)
(2.9 -3.9718e-14 0)
(2.9 6.34346e-14 0)
(2.9 1.22505e-13 0)
(2.9 3.4367e-14 0)
(2.9 -9.41152e-15 0)
(2.9 -2.89149e-15 0)
(2.9 -9.43241e-15 0)
(2.9 1.75242e-14 0)
(2.9 3.38112e-14 0)
(2.9 2.63672e-14 0)
(2.9 6.07674e-14 0)
(2.9 3.78794e-14 0)
(2.9 4.8644e-14 0)
(2.9 1.2845e-13 0)
(2.9 2.88997e-14 0)
(2.9 1.21319e-13 0)
(2.9 8.25315e-15 0)
(2.9 -6.10195e-14 0)
(2.9 7.53927e-14 0)
(2.9 6.08946e-14 0)
(2.9 5.55135e-14 0)
(2.9 2.88627e-14 0)
(2.9 4.31412e-14 0)
(2.9 -5.52887e-14 0)
(2.9 2.36189e-14 0)
(2.9 -4.00519e-14 0)
(2.9 1.80559e-14 0)
(2.9 -4.20376e-14 0)
(2.9 -1.04195e-13 0)
(2.9 -2.22662e-14 0)
(2.9 -2.17858e-14 0)
(2.9 4.96497e-14 0)
(2.9 6.49986e-14 0)
(2.9 1.19238e-13 0)
(2.9 4.40438e-14 0)
(2.9 4.75902e-14 0)
(2.9 1.21361e-15 0)
(2.9 9.36653e-14 0)
(2.9 3.50436e-14 0)
(2.9 6.7396e-15 0)
(2.9 -9.25745e-15 0)
(2.9 3.69891e-14 0)
(2.9 -2.83167e-14 0)
(2.9 -1.57357e-14 0)
(2.9 5.8335e-14 0)
(2.9 2.01306e-14 0)
(2.9 1.87839e-14 0)
(2.9 1.01412e-14 0)
(2.9 1.81032e-14 0)
(2.9 3.20265e-14 0)
(2.9 4.90633e-14 0)
(2.9 1.86506e-14 0)
(2.9 1.97751e-14 0)
(2.9 1.71527e-14 0)
(2.9 -2.36536e-14 0)
(2.9 -1.02391e-14 0)
(2.9 -1.21181e-14 0)
(2.9 -5.28067e-14 0)
(2.9 5.2365e-15 0)
(2.9 3.32615e-14 0)
(2.9 2.05047e-14 0)
(2.9 3.29281e-14 0)
(2.9 3.97231e-14 0)
(2.9 4.24624e-14 0)
(2.9 2.75035e-14 0)
(2.9 6.06846e-14 0)
(2.9 4.09594e-15 0)
(2.9 1.16875e-14 0)
(2.9 4.19203e-14 0)
(2.9 5.04718e-14 0)
(2.9 5.46661e-14 0)
(2.9 3.08165e-14 0)
(2.9 3.3734e-14 0)
(2.9 5.50002e-14 0)
(2.9 -3.1562e-14 0)
(2.9 5.61574e-14 0)
(2.9 -5.19469e-15 0)
(2.9 -2.88268e-14 0)
(2.9 -3.56179e-16 0)
(2.9 6.72359e-15 0)
(2.9 -8.57545e-15 0)
(2.9 7.34134e-15 0)
(2.9 4.49341e-15 0)
(2.9 -3.31529e-14 0)
(2.9 -2.82276e-14 0)
(2.9 -4.78992e-14 0)
(2.9 2.54572e-14 0)
(2.9 2.70758e-14 0)
(2.9 5.01584e-14 0)
(2.9 2.70694e-14 0)
(2.9 -5.6216e-14 0)
(2.9 -5.29691e-15 0)
(2.9 2.03773e-14 0)
(2.9 4.33569e-14 0)
(2.9 -1.34382e-14 0)
(2.9 -6.83955e-15 0)
(2.9 -1.15813e-14 0)
(2.9 3.16691e-14 0)
(2.9 2.50868e-14 0)
(2.9 -9.54272e-15 0)
(2.9 -6.00176e-14 0)
(2.9 1.13349e-14 0)
(2.9 -5.32715e-14 0)
(2.9 2.01526e-14 0)
(2.9 6.98417e-16 0)
(2.9 -5.33663e-16 0)
(2.9 3.63123e-14 0)
(2.9 -4.56043e-15 0)
(2.9 2.21877e-14 0)
(2.9 1.96448e-14 0)
(2.9 -1.78782e-14 0)
(2.9 -2.1296e-14 0)
(2.9 2.73012e-14 0)
(2.9 3.46714e-14 0)
(2.9 -2.80081e-14 0)
(2.9 -3.56906e-14 0)
(2.9 -7.37294e-14 0)
(2.9 -4.5407e-14 0)
(2.9 -5.36068e-14 0)
(2.9 4.62467e-14 0)
(2.9 7.19709e-14 0)
(2.9 5.13341e-14 0)
(2.9 3.49122e-14 0)
(2.9 -5.55226e-15 0)
(2.9 -8.0202e-15 0)
(2.9 -1.72331e-14 0)
(2.9 1.03109e-15 0)
(2.9 -1.13694e-14 0)
(2.9 6.92807e-16 0)
(2.9 2.74255e-14 0)
(2.9 -1.65574e-14 0)
(2.9 1.46709e-14 0)
(2.9 -1.44185e-15 0)
(2.9 -2.13025e-14 0)
(2.9 -1.93849e-14 0)
(2.9 -1.27773e-14 0)
(2.9 -2.74462e-14 0)
(2.9 -3.54675e-14 0)
(2.9 -3.2106e-14 0)
(2.9 2.31192e-14 0)
(2.9 -2.20671e-14 0)
(2.9 -2.29065e-14 0)
(2.9 -3.5973e-14 0)
(2.9 -4.49833e-14 0)
(2.9 -1.18208e-14 0)
(2.9 -1.36002e-14 0)
(2.9 2.11515e-14 0)
(2.9 3.79988e-14 0)
(2.9 4.66212e-14 0)
(2.9 -7.2655e-15 0)
(2.9 -7.74006e-14 0)
(2.9 -8.64693e-14 0)
(2.9 -3.72279e-14 0)
(2.9 1.26854e-14 0)
(2.9 -6.37413e-14 0)
(2.9 -6.79941e-14 0)
(2.9 -4.70715e-14 0)
(2.9 2.01906e-14 0)
(2.9 3.48367e-14 0)
(2.9 -2.04944e-14 0)
(2.9 -9.87854e-15 0)
(2.9 5.77143e-15 0)
(2.9 1.32718e-15 0)
(2.9 3.26191e-14 0)
(2.9 4.96289e-14 0)
(2.9 3.61276e-14 0)
(2.9 -6.18644e-15 0)
(2.9 -2.00431e-14 0)
(2.9 -7.59087e-15 0)
(2.9 -1.17188e-15 0)
(2.9 -4.44215e-14 0)
(2.9 -1.28483e-14 0)
(2.9 2.67627e-14 0)
(2.9 -2.78199e-14 0)
(2.9 -3.77487e-14 0)
(2.9 -6.66515e-14 0)
(2.9 -1.15331e-13 0)
(2.9 -6.04954e-14 0)
(2.9 -1.27051e-14 0)
(2.9 6.79011e-14 0)
(2.9 8.18396e-14 0)
(2.9 1.10128e-13 0)
(2.9 3.21763e-14 0)
(2.9 -2.22867e-14 0)
(2.9 -3.94071e-14 0)
(2.9 1.5106e-15 0)
(2.9 -4.61212e-14 0)
(2.9 -5.51635e-15 0)
(2.9 7.60938e-15 0)
(2.9 3.73502e-14 0)
(2.9 2.50355e-14 0)
(2.9 -5.48886e-15 0)
(2.9 -5.67704e-14 0)
(2.9 -3.43629e-14 0)
(2.9 -1.35992e-15 0)
(2.9 -1.71906e-14 0)
(2.9 -3.3643e-14 0)
(2.9 -3.92657e-15 0)
(2.9 -2.18071e-14 0)
(2.9 1.00093e-14 0)
(2.9 8.08112e-14 0)
(2.9 -3.99797e-15 0)
(2.9 3.54478e-14 0)
(2.9 1.54649e-14 0)
(2.9 2.38975e-14 0)
(2.9 1.30708e-14 0)
(2.9 1.6896e-14 0)
(2.9 4.33e-14 0)
(2.9 2.77161e-14 0)
(2.9 -5.7814e-14 0)
(2.9 -6.88049e-14 0)
(2.9 -2.49334e-14 0)
(2.9 -7.84242e-14 0)
(2.9 1.53224e-14 0)
(2.9 -4.31048e-14 0)
(2.9 3.41163e-14 0)
(2.9 -5.95422e-14 0)
(2.9 -1.10189e-14 0)
(2.9 -7.55737e-15 0)
(2.9 2.2312e-14 0)
(2.9 5.71646e-14 0)
(2.9 3.46466e-15 0)
(2.9 -2.91359e-14 0)
(2.9 -1.04798e-14 0)
(2.9 2.06118e-15 0)
(2.9 4.40641e-15 0)
(2.9 -6.80661e-15 0)
(2.9 -2.05708e-14 0)
(2.9 -6.79059e-15 0)
(2.9 2.11981e-14 0)
(2.9 1.93398e-14 0)
(2.9 -4.62558e-15 0)
(2.9 -3.62846e-16 0)
(2.9 -4.41939e-14 0)
(2.9 -1.62037e-14 0)
(2.9 -3.04172e-14 0)
(2.9 -3.5977e-14 0)
(2.9 -4.1176e-14 0)
(2.9 -3.40958e-15 0)
(2.9 6.62365e-14 0)
(2.9 9.4706e-14 0)
(2.9 6.41e-14 0)
(2.9 1.34658e-14 0)
(2.9 -1.54318e-14 0)
(2.9 -6.09129e-14 0)
(2.9 -2.2365e-14 0)
(2.9 -1.48159e-14 0)
(2.9 -2.48952e-14 0)
(2.9 -6.9844e-15 0)
(2.9 1.22931e-14 0)
(2.9 4.973e-14 0)
(2.9 3.83561e-14 0)
(2.9 -3.17362e-14 0)
(2.9 -1.58334e-14 0)
(2.9 -1.65485e-14 0)
(2.9 2.23223e-14 0)
(2.9 -4.11141e-14 0)
(2.9 5.07067e-14 0)
(2.9 -2.89771e-14 0)
(2.9 -2.16385e-14 0)
(2.9 7.15899e-14 0)
(2.9 2.3711e-14 0)
(2.9 3.51475e-14 0)
(2.9 8.70143e-14 0)
(2.9 1.87468e-14 0)
(2.9 3.17673e-14 0)
(2.9 1.90722e-15 0)
(2.9 4.68634e-14 0)
(2.9 3.42233e-14 0)
(2.9 2.76343e-15 0)
(2.9 -2.09562e-14 0)
(2.9 2.06104e-14 0)
(2.9 -5.10265e-14 0)
(2.9 -1.18314e-14 0)
(2.9 -4.48482e-14 0)
(2.9 4.65058e-14 0)
(2.9 -5.04907e-14 0)
(2.9 -4.91338e-14 0)
(2.9 -5.14445e-14 0)
(2.9 5.77751e-15 0)
(2.9 2.71396e-14 0)
(2.9 -1.71065e-14 0)
(2.9 -7.1125e-14 0)
(2.9 -1.35648e-14 0)
(2.9 -2.51915e-14 0)
(2.9 -5.53174e-14 0)
(2.9 -6.98884e-14 0)
(2.9 -8.74388e-14 0)
(2.9 -5.18038e-14 0)
(2.9 -2.61781e-14 0)
(2.9 -3.16595e-14 0)
(2.9 -5.68855e-14 0)
(2.9 -6.83066e-14 0)
(2.9 -2.2402e-14 0)
(2.9 -3.51917e-14 0)
(2.9 6.78651e-16 0)
(2.9 5.93466e-14 0)
(2.9 -4.43995e-14 0)
(2.9 -1.27666e-14 0)
(2.9 4.60118e-14 0)
(2.9 7.09113e-14 0)
(2.9 3.17769e-14 0)
(2.9 2.5017e-14 0)
(2.9 4.58061e-15 0)
(2.9 -1.20153e-13 0)
(2.9 -4.469e-14 0)
(2.9 -2.60135e-14 0)
(2.9 -7.60171e-14 0)
(2.9 -6.1102e-14 0)
(2.9 -2.44068e-14 0)
(2.9 -7.05072e-15 0)
(2.9 4.34997e-14 0)
(2.9 -3.71695e-14 0)
(2.9 2.07608e-14 0)
(2.9 2.74442e-14 0)
(2.9 3.39933e-14 0)
(2.9 -1.17012e-14 0)
(2.9 1.33908e-13 0)
(2.9 -5.03888e-16 0)
(2.9 4.5566e-14 0)
(2.9 9.71963e-15 0)
(2.9 7.10082e-14 0)
(2.9 -2.27951e-16 0)
(2.9 3.28216e-14 0)
(2.9 -6.97283e-14 0)
(2.9 -3.32058e-14 0)
(2.9 -2.0763e-14 0)
(2.9 5.34059e-14 0)
(2.9 3.56223e-14 0)
(2.9 5.78686e-14 0)
(2.9 1.82582e-14 0)
(2.9 -2.77174e-15 0)
(2.9 2.60766e-14 0)
(2.9 -2.27602e-14 0)
(2.9 -1.5839e-14 0)
(2.9 -4.27581e-14 0)
(2.9 -9.09416e-14 0)
(2.9 -1.12507e-13 0)
(2.9 -5.38443e-14 0)
(2.9 -1.21015e-14 0)
(2.9 3.14362e-15 0)
(2.9 2.49594e-14 0)
(2.9 3.38965e-14 0)
(2.9 -1.84839e-14 0)
(2.9 -1.06717e-13 0)
(2.9 -6.86971e-14 0)
(2.9 -8.31153e-14 0)
(2.9 1.08367e-14 0)
(2.9 9.49554e-15 0)
(2.9 -1.71119e-14 0)
(2.9 -4.2491e-14 0)
(2.9 -3.31791e-14 0)
(2.9 -5.04904e-14 0)
(2.9 -1.20225e-14 0)
(2.9 -7.88368e-14 0)
(2.9 -1.39124e-14 0)
(2.9 1.22652e-13 0)
(2.9 -2.00604e-14 0)
(2.9 -2.5437e-14 0)
(2.9 4.18856e-14 0)
(2.9 2.93275e-14 0)
(2.9 4.79851e-15 0)
(2.9 4.65056e-14 0)
(2.9 -2.2425e-14 0)
(2.9 -5.14535e-14 0)
(2.9 -2.70743e-14 0)
(2.9 -5.34613e-15 0)
(2.9 -7.6571e-14 0)
(2.9 5.34696e-15 0)
(2.9 -5.114e-14 0)
(2.9 -1.82304e-14 0)
(2.9 -4.08997e-14 0)
(2.9 -5.84771e-14 0)
(2.9 3.14886e-14 0)
(2.9 9.90079e-14 0)
(2.9 2.21364e-14 0)
(2.9 -3.70143e-17 0)
(2.9 4.18142e-14 0)
(2.9 -9.59412e-15 0)
(2.9 4.3009e-14 0)
(2.9 7.72665e-15 0)
(2.9 -1.291e-14 0)
(2.9 -6.2782e-15 0)
(2.9 -8.95405e-15 0)
(2.9 -9.16785e-14 0)
(2.9 -5.40794e-14 0)
(2.9 4.23686e-15 0)
(2.9 2.95488e-15 0)
(2.9 1.50319e-14 0)
(2.9 2.35332e-14 0)
(2.9 1.61076e-14 0)
(2.9 -3.02538e-14 0)
(2.9 8.01913e-15 0)
(2.9 1.47174e-14 0)
(2.9 2.30108e-14 0)
(2.9 -1.98424e-14 0)
(2.9 -6.70089e-14 0)
(2.9 -6.57296e-14 0)
(2.9 -3.49046e-14 0)
(2.9 7.12451e-16 0)
(2.9 1.57257e-14 0)
(2.9 1.76621e-14 0)
(2.9 1.84604e-14 0)
(2.9 -1.02613e-14 0)
(2.9 -4.94767e-14 0)
(2.9 -4.39637e-14 0)
(2.9 -6.27146e-14 0)
(2.9 2.42654e-14 0)
(2.9 -1.11197e-15 0)
(2.9 -1.60531e-15 0)
(2.9 -8.80308e-15 0)
(2.9 -3.78431e-14 0)
(2.9 -2.2909e-14 0)
(2.9 -7.01832e-15 0)
(2.9 -6.19578e-14 0)
(2.9 7.4288e-14 0)
(2.9 6.38604e-14 0)
(2.9 1.35869e-14 0)
(2.9 -2.76346e-14 0)
(2.9 -3.87308e-14 0)
(2.9 -5.77468e-16 0)
(2.9 -2.51427e-15 0)
(2.9 -4.12309e-15 0)
(2.9 -1.67048e-14 0)
(2.9 2.20305e-14 0)
(2.9 -2.17199e-15 0)
(2.9 1.85152e-14 0)
(2.9 -1.21692e-14 0)
(2.9 -8.833e-15 0)
(2.9 5.38876e-15 0)
(2.9 2.49274e-15 0)
(2.9 -2.91058e-14 0)
(2.9 -4.91836e-14 0)
(2.9 2.85272e-14 0)
(2.9 7.85038e-14 0)
(2.9 6.03272e-14 0)
(2.9 6.95503e-16 0)
(2.9 -1.00794e-14 0)
(2.9 -5.80352e-15 0)
(2.9 7.40997e-14 0)
(2.9 1.30291e-14 0)
(2.9 -1.42281e-14 0)
(2.9 -1.75664e-15 0)
(2.9 -2.69241e-14 0)
(2.9 -6.41045e-14 0)
(2.9 -2.41403e-14 0)
(2.9 2.62432e-14 0)
(2.9 1.77445e-14 0)
(2.9 5.23843e-14 0)
(2.9 4.67776e-15 0)
(2.9 -3.20989e-14 0)
(2.9 -3.44788e-14 0)
(2.9 1.42902e-14 0)
(2.9 -6.30777e-15 0)
(2.9 2.31132e-14 0)
(2.9 -3.17193e-14 0)
(2.9 1.53129e-14 0)
(2.9 3.17768e-14 0)
(2.9 -3.05407e-14 0)
(2.9 -2.80468e-14 0)
(2.9 2.81106e-15 0)
(2.9 1.25387e-14 0)
(2.9 1.75453e-14 0)
(2.9 -9.82434e-15 0)
(2.9 -5.99599e-14 0)
(2.9 -4.26533e-14 0)
(2.9 2.26483e-14 0)
(2.9 1.20418e-14 0)
(2.9 8.55996e-15 0)
(2.9 -1.92648e-14 0)
(2.9 -3.73268e-14 0)
(2.9 -6.16416e-14 0)
(2.9 -3.99024e-14 0)
(2.9 7.27797e-15 0)
(2.9 1.7965e-14 0)
(2.9 9.15763e-14 0)
(2.9 1.92125e-14 0)
(2.9 8.34022e-15 0)
(2.9 -2.33655e-14 0)
(2.9 -5.51714e-14 0)
(2.9 -1.14965e-14 0)
(2.9 -7.34227e-14 0)
(2.9 -3.48037e-14 0)
(2.9 7.49025e-15 0)
(2.9 2.36801e-14 0)
(2.9 1.23508e-14 0)
(2.9 -3.88106e-14 0)
(2.9 -7.98936e-14 0)
(2.9 -8.21509e-14 0)
(2.9 -1.81281e-14 0)
(2.9 -3.1448e-14 0)
(2.9 -3.11924e-14 0)
(2.9 4.67176e-14 0)
(2.9 -6.56379e-15 0)
(2.9 4.45908e-14 0)
(2.9 8.45278e-14 0)
(2.9 1.63529e-14 0)
(2.9 -9.55193e-15 0)
(2.9 -1.56724e-14 0)
(2.9 2.79889e-14 0)
(2.9 1.00935e-14 0)
(2.9 4.13265e-15 0)
(2.9 8.15419e-15 0)
(2.9 4.29582e-14 0)
(2.9 7.03682e-14 0)
(2.9 5.44957e-14 0)
(2.9 -4.3669e-15 0)
(2.9 8.80408e-15 0)
(2.9 -3.16971e-14 0)
(2.9 -1.53725e-14 0)
(2.9 6.59686e-15 0)
(2.9 6.8836e-14 0)
(2.9 4.26141e-14 0)
(2.9 4.30627e-14 0)
(2.9 8.55388e-15 0)
(2.9 -1.04293e-14 0)
(2.9 2.73968e-14 0)
(2.9 1.82884e-16 0)
(2.9 -1.61028e-14 0)
(2.9 7.92638e-15 0)
(2.9 -4.59705e-14 0)
(2.9 2.31551e-14 0)
(2.9 2.59156e-14 0)
(2.9 1.12831e-14 0)
(2.9 -3.92316e-14 0)
(2.9 6.02769e-15 0)
(2.9 1.31002e-13 0)
(2.9 7.09128e-14 0)
(2.9 -5.19661e-15 0)
(2.9 -4.30446e-14 0)
(2.9 -9.32173e-14 0)
(2.9 -6.41235e-14 0)
(2.9 -3.9065e-14 0)
(2.9 4.6651e-14 0)
(2.9 9.45998e-14 0)
(2.9 4.37463e-14 0)
(2.9 -3.74891e-14 0)
(2.9 1.81974e-14 0)
(2.9 -8.85664e-15 0)
(2.9 -4.74136e-14 0)
(2.9 -4.39777e-14 0)
(2.9 -9.68334e-14 0)
(2.9 -8.72556e-14 0)
(2.9 4.69173e-15 0)
(2.9 1.2506e-13 0)
(2.9 4.24146e-14 0)
(2.9 1.62674e-14 0)
(2.9 -8.13921e-14 0)
(2.9 -1.10198e-13 0)
(2.9 -3.2546e-14 0)
(2.9 -3.94505e-14 0)
(2.9 -1.97883e-14 0)
(2.9 6.58668e-14 0)
(2.9 -4.09167e-15 0)
(2.9 -2.57293e-14 0)
(2.9 5.04065e-14 0)
(2.9 5.36738e-14 0)
(2.9 -2.39778e-14 0)
(2.9 -2.97406e-14 0)
(2.9 -6.39188e-14 0)
(2.9 -5.99923e-14 0)
(2.9 -4.7271e-14 0)
(2.9 5.42145e-14 0)
(2.9 3.57861e-14 0)
(2.9 6.7527e-14 0)
(2.9 6.65379e-14 0)
(2.9 -4.6605e-14 0)
(2.9 2.45516e-14 0)
(2.9 5.53799e-15 0)
(2.9 -4.48387e-14 0)
(2.9 5.03308e-14 0)
(2.9 3.00936e-14 0)
(2.9 4.86049e-15 0)
(2.9 6.11972e-14 0)
(2.9 2.1747e-14 0)
(2.9 -1.45229e-14 0)
(2.9 1.69354e-14 0)
(2.9 -5.49075e-14 0)
(2.9 5.10359e-15 0)
(2.9 -5.34612e-15 0)
(2.9 -6.03482e-15 0)
(2.9 2.9739e-14 0)
(2.9 -1.11736e-15 0)
(2.9 2.46674e-14 0)
(2.9 9.12528e-14 0)
(2.9 6.41854e-14 0)
(2.9 7.36425e-14 0)
(2.9 7.17122e-15 0)
(2.9 5.19937e-15 0)
(2.9 -5.55732e-14 0)
(2.9 -8.57465e-14 0)
(2.9 -4.36625e-14 0)
(2.9 -3.28366e-14 0)
(2.9 -3.85041e-14 0)
(2.9 3.6832e-14 0)
(2.9 5.91005e-15 0)
(2.9 -7.19204e-14 0)
(2.9 -2.99501e-14 0)
(2.9 -2.81047e-14 0)
(2.9 -5.42074e-14 0)
(2.9 -7.00699e-14 0)
(2.9 -3.23107e-14 0)
(2.9 -5.80513e-14 0)
(2.9 6.61779e-14 0)
(2.9 9.03899e-14 0)
(2.9 1.64416e-14 0)
(2.9 4.80043e-14 0)
(2.9 -1.91434e-14 0)
(2.9 -6.77425e-14 0)
(2.9 -7.63042e-14 0)
(2.9 1.44814e-14 0)
(2.9 2.26914e-14 0)
(2.9 6.3219e-14 0)
(2.9 3.49516e-14 0)
(2.9 -1.25409e-14 0)
(2.9 -4.3209e-16 0)
(2.9 3.4224e-14 0)
(2.9 -1.64071e-15 0)
(2.9 5.11923e-14 0)
(2.9 -2.08175e-14 0)
(2.9 3.83061e-14 0)
(2.9 9.57815e-15 0)
(2.9 3.26692e-14 0)
(2.9 1.31568e-14 0)
(2.9 5.83296e-14 0)
(2.9 -7.64507e-15 0)
(2.9 -2.9945e-14 0)
(2.9 -1.02893e-14 0)
(2.9 5.57008e-14 0)
(2.9 -7.06649e-15 0)
(2.9 6.51004e-14 0)
(2.9 6.75519e-14 0)
(2.9 1.88327e-14 0)
(2.9 1.29945e-14 0)
(2.9 2.56297e-14 0)
(2.9 -4.88928e-14 0)
(2.9 1.00425e-14 0)
(2.9 -1.11616e-13 0)
(2.9 -2.69277e-14 0)
(2.9 3.7471e-15 0)
(2.9 2.38568e-14 0)
(2.9 1.08504e-15 0)
(2.9 -3.28922e-14 0)
(2.9 1.79579e-14 0)
(2.9 8.74998e-14 0)
(2.9 6.12737e-14 0)
(2.9 6.37215e-14 0)
(2.9 -2.99038e-14 0)
(2.9 -6.5068e-14 0)
(2.9 -5.44057e-14 0)
(2.9 -6.37836e-14 0)
(2.9 -5.2145e-14 0)
(2.9 -4.30927e-14 0)
(2.9 -7.00478e-14 0)
(2.9 -4.92216e-15 0)
(2.9 -1.94355e-14 0)
(2.9 -6.35634e-14 0)
(2.9 -1.90673e-14 0)
(2.9 1.58373e-14 0)
(2.9 -8.57906e-14 0)
(2.9 -8.39299e-14 0)
(2.9 1.63715e-14 0)
(2.9 -4.34787e-14 0)
(2.9 -1.46267e-14 0)
(2.9 3.82643e-14 0)
(2.9 -1.81911e-14 0)
(2.9 -3.27047e-14 0)
(2.9 -1.96419e-14 0)
(2.9 -2.50268e-14 0)
(2.9 -1.44911e-14 0)
(2.9 -1.07853e-15 0)
(2.9 5.87453e-15 0)
(2.9 2.84943e-14 0)
(2.9 2.73064e-14 0)
(2.9 6.65379e-14 0)
(2.9 -8.08194e-15 0)
(2.9 -4.34127e-14 0)
(2.9 -1.61059e-15 0)
(2.9 3.5636e-14 0)
(2.9 8.9543e-14 0)
(2.9 4.52904e-14 0)
(2.9 7.90497e-14 0)
(2.9 -7.22758e-17 0)
(2.9 -2.19499e-15 0)
(2.9 5.56671e-14 0)
(2.9 5.02631e-15 0)
(2.9 2.79511e-14 0)
(2.9 -4.5864e-14 0)
(2.9 2.98832e-14 0)
(2.9 2.93789e-14 0)
(2.9 6.27743e-14 0)
(2.9 2.69033e-14 0)
(2.9 3.33677e-14 0)
(2.9 -1.25115e-14 0)
(2.9 -1.99094e-14 0)
(2.9 4.26101e-14 0)
(2.9 2.14244e-14 0)
(2.9 -4.1187e-14 0)
(2.9 -5.62619e-14 0)
(2.9 -3.35966e-14 0)
(2.9 4.91686e-15 0)
(2.9 -2.07836e-14 0)
(2.9 -1.29931e-14 0)
(2.9 -1.83441e-14 0)
(2.9 6.46873e-14 0)
(2.9 2.47645e-14 0)
(2.9 3.1257e-14 0)
(2.9 -3.52975e-14 0)
(2.9 -2.62355e-14 0)
(2.9 2.39154e-14 0)
(2.9 7.17605e-14 0)
(2.9 -4.98745e-16 0)
(2.9 -2.28141e-15 0)
(2.9 -7.42107e-15 0)
(2.9 -5.10859e-16 0)
(2.9 -2.51898e-14 0)
(2.9 -7.39494e-14 0)
(2.9 -7.24028e-14 0)
(2.9 7.99373e-14 0)
(2.9 2.72127e-15 0)
(2.9 -4.89235e-14 0)
(2.9 -6.45939e-14 0)
(2.9 -3.161e-14 0)
(2.9 -4.14093e-14 0)
(2.9 -3.40221e-14 0)
(2.9 -6.47043e-14 0)
(2.9 -4.86618e-14 0)
(2.9 4.88642e-14 0)
(2.9 -4.45331e-14 0)
(2.9 3.26514e-15 0)
(2.9 -5.08856e-14 0)
(2.9 -7.61184e-14 0)
(2.9 -2.8537e-14 0)
(2.9 7.99597e-15 0)
(2.9 4.25745e-14 0)
(2.9 -3.21531e-14 0)
(2.9 -8.71672e-15 0)
(2.9 -2.39781e-14 0)
(2.9 2.84941e-14 0)
(2.9 1.73218e-14 0)
(2.9 5.77408e-14 0)
(2.9 1.13689e-14 0)
(2.9 5.6852e-14 0)
(2.9 5.82112e-14 0)
(2.9 -9.05608e-15 0)
(2.9 -6.93014e-15 0)
(2.9 -6.16619e-14 0)
(2.9 -9.48926e-15 0)
(2.9 3.74066e-14 0)
(2.9 8.12077e-14 0)
(2.9 3.33774e-14 0)
(2.9 -5.43697e-16 0)
(2.9 2.27386e-15 0)
(2.9 -3.92996e-14 0)
(2.9 2.47486e-16 0)
(2.9 3.53758e-14 0)
(2.9 4.80861e-14 0)
(2.9 4.03946e-14 0)
(2.9 -1.15391e-13 0)
(2.9 -1.87346e-14 0)
(2.9 -8.9275e-15 0)
(2.9 -5.87109e-14 0)
(2.9 -1.2786e-14 0)
(2.9 -2.0151e-14 0)
(2.9 1.82552e-14 0)
(2.9 4.87881e-14 0)
(2.9 7.26888e-15 0)
(2.9 -2.84648e-14 0)
(2.9 2.67685e-14 0)
(2.9 6.06584e-14 0)
(2.9 7.0751e-14 0)
(2.9 2.78858e-14 0)
(2.9 3.89838e-15 0)
(2.9 -2.23163e-14 0)
(2.9 8.1515e-15 0)
(2.9 -2.33597e-14 0)
(2.9 -3.91597e-14 0)
(2.9 -3.70977e-14 0)
(2.9 3.00095e-14 0)
(2.9 4.52342e-14 0)
(2.9 -6.25417e-14 0)