/*--------------------------------*- C++ -*----------------------------------*\
| =========                 |                                                 |
| \\      /  F ield         | OpenFOAM: The Open Source CFD Toolbox           |
|  \\    /   O peration     | Version:  2412                                  |
|   \\  /    A nd           | Website:  www.openfoam.com                      |
|    \\/     M anipulation  |                                                 |
\*---------------------------------------------------------------------------*/
FoamFile
{
    version     2.0;
    format      ascii;
    arch        "LSB;label=32;scalar=64";
    class       surfaceScalarField;
    location    "0.00806738";
    object      phiRhoY_Y_N2;
}
// * * * * * * * * * * * * * * * * * * * * * * * * * * * * * * * * * * * * * //

dimensions      [1 0 -1 0 0 0 0];

internalField   nonuniform List<scalar> 
99
(
6.82121e-13
6.82121e-13
5.68434e-13
2.27374e-13
-1.13687e-13
-1.13687e-13
-9.09495e-13
-3.41061e-13
-2.27374e-13
-5.68434e-13
-1.13687e-13
-1.13687e-13
-6.82121e-13
-3.41061e-13
1.13687e-13
4.54747e-13
6.82121e-13
1.19371e-11
6.58679e-09
3.07786e-06
0.00106684
0.174827
5.87638
39.3586
97.1283
151.453
194.612
229.911
260.719
288.704
314.552
338.485
360.7
381.145
399.887
417.146
432.307
446.68
459.164
469.144
479.91
489.481
495.733
500.768
506.746
518.644
521.218
512.577
510.207
520.209
541.355
542.002
509.456
490.783
509.502
549.088
550.187
508.279
490.058
509.824
549.391
550.673
518.372
489.981
494.757
535.891
574.403
551.497
450.552
307.231
189.153
106.125
53.3792
25.3419
11.3474
4.75167
1.84777
0.663494
0.219167
0.068143
0.0207113
0.00599692
0.0016717
0.000435822
0.000102961
2.24785e-05
4.52244e-06
7.29811e-07
2.83724e-08
3.26305e-12
2.35702e-21
1.39213e-36
1.37404e-57
0
0
0
0
0
0
)
;

boundaryField
{
    sides
    {
        type            calculated;
        value           uniform 0;
    }
    empty
    {
        type            empty;
    }
}


// ************************************************************************* //
