/*--------------------------------*- C++ -*----------------------------------*\
| =========                 |                                                 |
| \\      /  F ield         | OpenFOAM: The Open Source CFD Toolbox           |
|  \\    /   O peration     | Version:  2412                                  |
|   \\  /    A nd           | Website:  www.openfoam.com                      |
|    \\/     M anipulation  |                                                 |
\*---------------------------------------------------------------------------*/
FoamFile
{
    version     2.0;
    format      ascii;
    arch        "LSB;label=32;scalar=64";
    class       volVectorField;
    location    "9.80459e-06";
    object      U;
}
// * * * * * * * * * * * * * * * * * * * * * * * * * * * * * * * * * * * * * //

dimensions      [0 1 -1 0 0 0 0];

internalField   nonuniform List<vector> 
1800
(
(2.9 3.40154e-16 0)
(2.9 9.92214e-15 0)
(2.9 4.04013e-16 0)
(2.9 1.61064e-17 0)
(2.9 6.60235e-19 0)
(2.9 2.77206e-20 0)
(2.9 1.1864e-21 0)
(2.9 5.15073e-23 0)
(2.9 2.25853e-24 0)
(2.9 9.96675e-26 0)
(2.9 4.41426e-27 0)
(2.9 1.95827e-28 0)
(2.9 -2.68625e-17 0)
(2.9 -3.55137e-16 0)
(2.9 -9.92278e-15 0)
(2.9 -4.04042e-16 0)
(2.9 -1.61077e-17 0)
(2.9 -6.60294e-19 0)
(2.9 -2.77233e-20 0)
(2.9 -1.18652e-21 0)
(2.9 -5.15131e-23 0)
(2.9 -2.2588e-24 0)
(2.9 -9.96796e-26 0)
(2.9 -4.41482e-27 0)
(2.9 -1.95852e-28 0)
(2.9 -8.69051e-30 0)
(2.9 -3.85355e-31 0)
(2.9 -1.70655e-32 0)
(2.9 -7.5452e-34 0)
(2.9 -3.32996e-35 0)
(2.9 -1.4669e-36 0)
(2.9 -6.45001e-38 0)
(2.9 -2.83107e-39 0)
(2.9 -1.24055e-40 0)
(2.9 -5.42748e-42 0)
(2.9 -2.37114e-43 0)
(2.9 -1.03454e-44 0)
(2.9 -4.50831e-46 0)
(2.9 -1.96251e-47 0)
(2.9 -8.53468e-49 0)
(2.9 -3.70837e-50 0)
(2.9 -1.61005e-51 0)
(2.9 -6.98543e-53 0)
(2.9 -3.02885e-54 0)
(2.9 -1.31257e-55 0)
(2.9 -5.68535e-57 0)
(2.9 -2.46152e-58 0)
(2.9 -1.06533e-59 0)
(2.9 -4.60914e-61 0)
(2.9 -1.99355e-62 0)
(2.9 -8.62025e-64 0)
(2.9 -3.72661e-65 0)
(2.9 -1.61072e-66 0)
(2.9 -6.96067e-68 0)
(2.9 -3.00756e-69 0)
(2.9 -1.29933e-70 0)
(2.9 -5.61272e-72 0)
(2.9 -2.42428e-73 0)
(2.9 -1.04701e-74 0)
(2.9 -4.72562e-76 0)
(2.9 1.35544e-16 0)
(2.9 1.86979e-15 0)
(2.9 1.61578e-16 0)
(2.9 1.05116e-17 0)
(2.9 6.15437e-19 0)
(2.9 3.41748e-20 0)
(2.9 1.83896e-21 0)
(2.9 9.68838e-23 0)
(2.9 5.02466e-24 0)
(2.9 2.57332e-25 0)
(2.9 1.30392e-26 0)
(2.9 6.54568e-28 0)
(2.9 -1.06292e-17 0)
(2.9 -1.45095e-16 0)
(2.9 -1.87036e-15 0)
(2.9 -1.61611e-16 0)
(2.9 -1.05134e-17 0)
(2.9 -6.15537e-19 0)
(2.9 -3.41802e-20 0)
(2.9 -1.83924e-21 0)
(2.9 -9.68988e-23 0)
(2.9 -5.02544e-24 0)
(2.9 -2.57371e-25 0)
(2.9 -1.30412e-26 0)
(2.9 -6.54668e-28 0)
(2.9 -3.25904e-29 0)
(2.9 -1.61012e-30 0)
(2.9 -7.89964e-32 0)
(2.9 -3.85104e-33 0)
(2.9 -1.86633e-34 0)
(2.9 -8.99559e-36 0)
(2.9 -4.314e-37 0)
(2.9 -2.05921e-38 0)
(2.9 -9.78673e-40 0)
(2.9 -4.63259e-41 0)
(2.9 -2.18465e-42 0)
(2.9 -1.02666e-43 0)
(2.9 -4.80902e-45 0)
(2.9 -2.24578e-46 0)
(2.9 -1.04579e-47 0)
(2.9 -4.85701e-49 0)
(2.9 -2.25014e-50 0)
(2.9 -1.04001e-51 0)
(2.9 -4.7963e-53 0)
(2.9 -2.20739e-54 0)
(2.9 -1.01392e-55 0)
(2.9 -4.64867e-57 0)
(2.9 -2.12765e-58 0)
(2.9 -9.722e-60 0)
(2.9 -4.43542e-61 0)
(2.9 -2.02056e-62 0)
(2.9 -9.19179e-64 0)
(2.9 -4.17589e-65 0)
(2.9 -1.89473e-66 0)
(2.9 -8.58658e-68 0)
(2.9 -3.8868e-69 0)
(2.9 -1.75747e-70 0)
(2.9 -7.93825e-72 0)
(2.9 -3.58202e-73 0)
(2.9 -1.69083e-74 0)
(2.9 3.74375e-17 0)
(2.9 3.53041e-16 0)
(2.9 4.64528e-17 0)
(2.9 4.10572e-18 0)
(2.9 3.04834e-19 0)
(2.9 2.05149e-20 0)
(2.9 1.29602e-21 0)
(2.9 7.83175e-23 0)
(2.9 4.57775e-24 0)
(2.9 2.60666e-25 0)
(2.9 1.45294e-26 0)
(2.9 7.95475e-28 0)
(2.9 -2.97225e-18 0)
(2.9 -4.10435e-17 0)
(2.9 -3.53313e-16 0)
(2.9 -4.64716e-17 0)
(2.9 -4.10694e-18 0)
(2.9 -3.04911e-19 0)
(2.9 -2.05195e-20 0)
(2.9 -1.29629e-21 0)
(2.9 -7.8333e-23 0)
(2.9 -4.57863e-24 0)
(2.9 -2.60715e-25 0)
(2.9 -1.4532e-26 0)
(2.9 -7.95617e-28 0)
(2.9 -4.28946e-29 0)
(2.9 -2.28177e-30 0)
(2.9 -1.19946e-31 0)
(2.9 -6.2387e-33 0)
(2.9 -3.21406e-34 0)
(2.9 -1.64155e-35 0)
(2.9 -8.31811e-37 0)
(2.9 -4.18463e-38 0)
(2.9 -2.09124e-39 0)
(2.9 -1.0387e-40 0)
(2.9 -5.12992e-42 0)
(2.9 -2.52028e-43 0)
(2.9 -1.23215e-44 0)
(2.9 -5.99648e-46 0)
(2.9 -2.9059e-47 0)
(2.9 -1.4026e-48 0)
(2.9 -6.74476e-50 0)
(2.9 -3.23202e-51 0)
(2.9 -1.54365e-52 0)
(2.9 -7.34974e-54 0)
(2.9 -3.48916e-55 0)
(2.9 -1.65183e-56 0)
(2.9 -7.79961e-58 0)
(2.9 -3.67366e-59 0)
(2.9 -1.72624e-60 0)
(2.9 -8.09344e-62 0)
(2.9 -3.78651e-63 0)
(2.9 -1.76793e-64 0)
(2.9 -8.2386e-66 0)
(2.9 -3.83215e-67 0)
(2.9 -1.77937e-68 0)
(2.9 -8.24827e-70 0)
(2.9 -3.81734e-71 0)
(2.9 -1.76397e-72 0)
(2.9 -8.53161e-74 0)
(2.9 1.15859e-17 0)
(2.9 6.69912e-17 0)
(2.9 1.17692e-17 0)
(2.9 1.30741e-18 0)
(2.9 1.16985e-19 0)
(2.9 9.20779e-21 0)
(2.9 6.65352e-22 0)
(2.9 4.5213e-23 0)
(2.9 2.93253e-24 0)
(2.9 1.83336e-25 0)
(2.9 1.11235e-26 0)
(2.9 6.58218e-28 0)
(2.9 -7.28555e-19 0)
(2.9 -1.01322e-17 0)
(2.9 -6.68664e-17 0)
(2.9 -1.17626e-17 0)
(2.9 -1.30716e-18 0)
(2.9 -1.16981e-19 0)
(2.9 -9.20822e-21 0)
(2.9 -6.65413e-22 0)
(2.9 -4.52184e-23 0)
(2.9 -2.93292e-24 0)
(2.9 -1.83363e-25 0)
(2.9 -1.11252e-26 0)
(2.9 -6.58322e-28 0)
(2.9 -3.81343e-29 0)
(2.9 -2.16863e-30 0)
(2.9 -1.21349e-31 0)
(2.9 -6.69368e-33 0)
(2.9 -3.6453e-34 0)
(2.9 -1.96242e-35 0)
(2.9 -1.04547e-36 0)
(2.9 -5.5169e-38 0)
(2.9 -2.88596e-39 0)
(2.9 -1.49763e-40 0)
(2.9 -7.71444e-42 0)
(2.9 -3.94667e-43 0)
(2.9 -2.0063e-44 0)
(2.9 -1.01389e-45 0)
(2.9 -5.09552e-47 0)
(2.9 -2.54766e-48 0)
(2.9 -1.26763e-49 0)
(2.9 -6.2787e-51 0)
(2.9 -3.09663e-52 0)
(2.9 -1.5211e-53 0)
(2.9 -7.44349e-55 0)
(2.9 -3.62939e-56 0)
(2.9 -1.76365e-57 0)
(2.9 -8.54257e-59 0)
(2.9 -4.12512e-60 0)
(2.9 -1.98619e-61 0)
(2.9 -9.5368e-63 0)
(2.9 -4.56709e-64 0)
(2.9 -2.18165e-65 0)
(2.9 -1.03966e-66 0)
(2.9 -4.94309e-68 0)
(2.9 -2.34507e-69 0)
(2.9 -1.1102e-70 0)
(2.9 -5.24537e-72 0)
(2.9 -2.59538e-73 0)
(2.9 1.76572e-17 0)
(2.9 1.34004e-17 0)
(2.9 2.81614e-18 0)
(2.9 3.73065e-19 0)
(2.9 3.88965e-20 0)
(2.9 3.49633e-21 0)
(2.9 2.83911e-22 0)
(2.9 2.14021e-23 0)
(2.9 1.52389e-24 0)
(2.9 1.03693e-25 0)
(2.9 6.79883e-27 0)
(2.9 4.32169e-28 0)
(2.9 -1.66512e-19 0)
(2.9 -2.32832e-18 0)
(2.9 -1.2675e-17 0)
(2.9 -2.78102e-18 0)
(2.9 -3.71359e-19 0)
(2.9 -3.88146e-20 0)
(2.9 -3.4925e-21 0)
(2.9 -2.83739e-22 0)
(2.9 -2.13949e-23 0)
(2.9 -1.52362e-24 0)
(2.9 -1.03685e-25 0)
(2.9 -6.79876e-27 0)
(2.9 -4.32184e-28 0)
(2.9 -2.67569e-29 0)
(2.9 -1.61917e-30 0)
(2.9 -9.60456e-32 0)
(2.9 -5.59756e-33 0)
(2.9 -3.21132e-34 0)
(2.9 -1.81647e-35 0)
(2.9 -1.01442e-36 0)
(2.9 -5.59959e-38 0)
(2.9 -3.05828e-39 0)
(2.9 -1.65409e-40 0)
(2.9 -8.8662e-42 0)
(2.9 -4.71306e-43 0)
(2.9 -2.48609e-44 0)
(2.9 -1.30201e-45 0)
(2.9 -6.77335e-47 0)
(2.9 -3.50166e-48 0)
(2.9 -1.79969e-49 0)
(2.9 -9.19876e-51 0)
(2.9 -4.67746e-52 0)
(2.9 -2.36685e-53 0)
(2.9 -1.19215e-54 0)
(2.9 -5.97853e-56 0)
(2.9 -2.98585e-57 0)
(2.9 -1.48539e-58 0)
(2.9 -7.3621e-60 0)
(2.9 -3.63603e-61 0)
(2.9 -1.78976e-62 0)
(2.9 -8.78152e-64 0)
(2.9 -4.29554e-65 0)
(2.9 -2.09507e-66 0)
(2.9 -1.01899e-67 0)
(2.9 -4.94289e-69 0)
(2.9 -2.39157e-70 0)
(2.9 -1.15432e-71 0)
(2.9 -5.83802e-73 0)
(2.9 6.81355e-19 0)
(2.9 2.44085e-18 0)
(2.9 6.34014e-19 0)
(2.9 9.84113e-20 0)
(2.9 1.17344e-20 0)
(2.9 1.18601e-21 0)
(2.9 1.06879e-22 0)
(2.9 8.84787e-24 0)
(2.9 6.85901e-25 0)
(2.9 5.04505e-26 0)
(2.9 3.55413e-27 0)
(2.9 2.41487e-28 0)
(2.9 -3.64363e-20 0)
(2.9 -5.11835e-19 0)
(2.9 -2.40584e-18 0)
(2.9 -6.30142e-19 0)
(2.9 -9.80812e-20 0)
(2.9 -1.17102e-20 0)
(2.9 -1.18442e-21 0)
(2.9 -1.06783e-22 0)
(2.9 -8.84239e-24 0)
(2.9 -6.8561e-25 0)
(2.9 -5.0436e-26 0)
(2.9 -3.55347e-27 0)
(2.9 -2.4146e-28 0)
(2.9 -1.59088e-29 0)
(2.9 -1.02056e-30 0)
(2.9 -6.39589e-32 0)
(2.9 -3.92647e-33 0)
(2.9 -2.36654e-34 0)
(2.9 -1.40298e-35 0)
(2.9 -8.1942e-37 0)
(2.9 -4.72136e-38 0)
(2.9 -2.68685e-39 0)
(2.9 -1.51175e-40 0)
(2.9 -8.41721e-42 0)
(2.9 -4.64139e-43 0)
(2.9 -2.53646e-44 0)
(2.9 -1.3746e-45 0)
(2.9 -7.39169e-47 0)
(2.9 -3.94589e-48 0)
(2.9 -2.0921e-49 0)
(2.9 -1.10213e-50 0)
(2.9 -5.77121e-52 0)
(2.9 -3.0049e-53 0)
(2.9 -1.55619e-54 0)
(2.9 -8.01841e-56 0)
(2.9 -4.11175e-57 0)
(2.9 -2.09886e-58 0)
(2.9 -1.06674e-59 0)
(2.9 -5.39942e-61 0)
(2.9 -2.72227e-62 0)
(2.9 -1.36739e-63 0)
(2.9 -6.84388e-65 0)
(2.9 -3.41377e-66 0)
(2.9 -1.69727e-67 0)
(2.9 -8.41225e-69 0)
(2.9 -4.15697e-70 0)
(2.9 -2.04834e-71 0)
(2.9 -1.05823e-72 0)
(2.9 -1.50362e-17 0)
(2.9 -2.29579e-19 0)
(2.9 1.07324e-19 0)
(2.9 2.31917e-20 0)
(2.9 3.23831e-21 0)
(2.9 3.67822e-22 0)
(2.9 3.65806e-23 0)
(2.9 3.30465e-24 0)
(2.9 2.77272e-25 0)
(2.9 2.19295e-26 0)
(2.9 1.6522e-27 0)
(2.9 1.19507e-28 0)
(2.9 -7.73977e-21 0)
(2.9 -1.09174e-19 0)
(2.9 -4.57149e-19 0)
(2.9 -1.38689e-19 0)
(2.9 -2.46169e-20 0)
(2.9 -3.30201e-21 0)
(2.9 -3.70593e-22 0)
(2.9 -3.66966e-23 0)
(2.9 -3.30927e-24 0)
(2.9 -2.77443e-25 0)
(2.9 -2.19353e-26 0)
(2.9 -1.65237e-27 0)
(2.9 -1.1951e-28 0)
(2.9 -8.34848e-30 0)
(2.9 -5.65893e-31 0)
(2.9 -3.736e-32 0)
(2.9 -2.40961e-33 0)
(2.9 -1.52213e-34 0)
(2.9 -9.43713e-36 0)
(2.9 -5.75294e-37 0)
(2.9 -3.45358e-38 0)
(2.9 -2.04435e-39 0)
(2.9 -1.19467e-40 0)
(2.9 -6.89909e-42 0)
(2.9 -3.94069e-43 0)
(2.9 -2.22811e-44 0)
(2.9 -1.24793e-45 0)
(2.9 -6.92809e-47 0)
(2.9 -3.81463e-48 0)
(2.9 -2.08417e-49 0)
(2.9 -1.13047e-50 0)
(2.9 -6.08995e-52 0)
(2.9 -3.25965e-53 0)
(2.9 -1.73414e-54 0)
(2.9 -9.17273e-56 0)
(2.9 -4.8255e-57 0)
(2.9 -2.52545e-58 0)
(2.9 -1.31523e-59 0)
(2.9 -6.81757e-61 0)
(2.9 -3.51824e-62 0)
(2.9 -1.80791e-63 0)
(2.9 -9.25264e-65 0)
(2.9 -4.71708e-66 0)
(2.9 -2.39591e-67 0)
(2.9 -1.21263e-68 0)
(2.9 -6.11659e-70 0)
(2.9 -3.07524e-71 0)
(2.9 -1.62204e-72 0)
(2.9 -2.69564e-18 0)
(2.9 -1.65876e-19 0)
(2.9 1.23721e-20 0)
(2.9 4.87204e-21 0)
(2.9 8.23091e-22 0)
(2.9 1.05686e-22 0)
(2.9 1.15845e-23 0)
(2.9 1.13809e-24 0)
(2.9 1.02939e-25 0)
(2.9 8.71992e-27 0)
(2.9 7.00035e-28 0)
(2.9 5.37235e-29 0)
(2.9 -1.609e-21 0)
(2.9 -2.27835e-20 0)
(2.9 -8.69411e-20 0)
(2.9 -2.9885e-20 0)
(2.9 -5.94963e-21 0)
(2.9 -8.85075e-22 0)
(2.9 -1.09089e-22 0)
(2.9 -1.17647e-23 0)
(2.9 -1.14734e-24 0)
(2.9 -1.03401e-25 0)
(2.9 -8.7425e-27 0)
(2.9 -7.01115e-28 0)
(2.9 -5.37743e-29 0)
(2.9 -3.96977e-30 0)
(2.9 -2.835e-31 0)
(2.9 -1.96655e-32 0)
(2.9 -1.32943e-33 0)
(2.9 -8.78291e-35 0)
(2.9 -5.68367e-36 0)
(2.9 -3.60991e-37 0)
(2.9 -2.25411e-38 0)
(2.9 -1.3858e-39 0)
(2.9 -8.39901e-41 0)
(2.9 -5.02393e-42 0)
(2.9 -2.96877e-43 0)
(2.9 -1.73464e-44 0)
(2.9 -1.00295e-45 0)
(2.9 -5.74247e-47 0)
(2.9 -3.25789e-48 0)
(2.9 -1.8325e-49 0)
(2.9 -1.02246e-50 0)
(2.9 -5.66171e-52 0)
(2.9 -3.11271e-53 0)
(2.9 -1.69977e-54 0)
(2.9 -9.22272e-56 0)
(2.9 -4.97385e-57 0)
(2.9 -2.667e-58 0)
(2.9 -1.42226e-59 0)
(2.9 -7.54518e-61 0)
(2.9 -3.98296e-62 0)
(2.9 -2.0926e-63 0)
(2.9 -1.09447e-64 0)
(2.9 -5.69963e-66 0)
(2.9 -2.95593e-67 0)
(2.9 -1.52694e-68 0)
(2.9 -7.85781e-70 0)
(2.9 -4.02908e-71 0)
(2.9 -2.16865e-72 0)
(2.9 -4.83646e-19 0)
(2.9 -5.30648e-20 0)
(2.9 -1.25299e-22 0)
(2.9 8.98734e-22 0)
(2.9 1.93581e-22 0)
(2.9 2.83867e-23 0)
(2.9 3.434e-24 0)
(2.9 3.66305e-25 0)
(2.9 3.56243e-26 0)
(2.9 3.22286e-27 0)
(2.9 2.74902e-28 0)
(2.9 2.2323e-29 0)
(2.9 -3.29057e-22 0)
(2.9 -4.67655e-21 0)
(2.9 -1.65456e-20 0)
(2.9 -6.33672e-21 0)
(2.9 -1.39669e-21 0)
(2.9 -2.28046e-22 0)
(2.9 -3.0607e-23 0)
(2.9 -3.56973e-24 0)
(2.9 -3.74269e-25 0)
(2.9 -3.60762e-26 0)
(2.9 -3.24779e-27 0)
(2.9 -2.76245e-28 0)
(2.9 -2.23939e-29 0)
(2.9 -1.74195e-30 0)
(2.9 -1.30723e-31 0)
(2.9 -9.50523e-33 0)
(2.9 -6.7208e-34 0)
(2.9 -4.63467e-35 0)
(2.9 -3.12494e-36 0)
(2.9 -2.06451e-37 0)
(2.9 -1.33887e-38 0)
(2.9 -8.53678e-40 0)
(2.9 -5.35903e-41 0)
(2.9 -3.31621e-42 0)
(2.9 -2.02501e-43 0)
(2.9 -1.2214e-44 0)
(2.9 -7.28287e-46 0)
(2.9 -4.2963e-47 0)
(2.9 -2.50919e-48 0)
(2.9 -1.45174e-49 0)
(2.9 -8.32543e-51 0)
(2.9 -4.73491e-52 0)
(2.9 -2.67182e-53 0)
(2.9 -1.49652e-54 0)
(2.9 -8.32352e-56 0)
(2.9 -4.59877e-57 0)
(2.9 -2.52483e-58 0)
(2.9 -1.37789e-59 0)
(2.9 -7.47675e-61 0)
(2.9 -4.03502e-62 0)
(2.9 -2.16631e-63 0)
(2.9 -1.15728e-64 0)
(2.9 -6.15314e-66 0)
(2.9 -3.25672e-67 0)
(2.9 -1.71623e-68 0)
(2.9 -9.00651e-70 0)
(2.9 -4.70765e-71 0)
(2.9 -2.58467e-72 0)
(2.9 -8.684e-20 0)
(2.9 -1.38783e-20 0)
(2.9 -6.57869e-22 0)
(2.9 1.36768e-22 0)
(2.9 4.2105e-23 0)
(2.9 7.16954e-24 0)
(2.9 9.60606e-25 0)
(2.9 1.11239e-25 0)
(2.9 1.16142e-26 0)
(2.9 1.11981e-27 0)
(2.9 1.01262e-28 0)
(2.9 8.6814e-30 0)
(2.9 -6.64358e-23 0)
(2.9 -9.47512e-22 0)
(2.9 -3.15029e-21 0)
(2.9 -1.32665e-21 0)
(2.9 -3.20367e-22 0)
(2.9 -5.69234e-23 0)
(2.9 -8.26057e-24 0)
(2.9 -1.03573e-24 0)
(2.9 -1.1615e-25 0)
(2.9 -1.19222e-26 0)
(2.9 -1.13848e-27 0)
(2.9 -1.02361e-28 0)
(2.9 -8.7445e-30 0)
(2.9 -7.14847e-31 0)
(2.9 -5.62377e-32 0)
(2.9 -4.2773e-33 0)
(2.9 -3.15706e-34 0)
(2.9 -2.26848e-35 0)
(2.9 -1.59105e-36 0)
(2.9 -1.09172e-37 0)
(2.9 -7.34297e-39 0)
(2.9 -4.84949e-40 0)
(2.9 -3.1494e-41 0)
(2.9 -2.01387e-42 0)
(2.9 -1.26943e-43 0)
(2.9 -7.89588e-45 0)
(2.9 -4.85074e-46 0)
(2.9 -2.94568e-47 0)
(2.9 -1.76952e-48 0)
(2.9 -1.05223e-49 0)
(2.9 -6.19742e-51 0)
(2.9 -3.61743e-52 0)
(2.9 -2.09362e-53 0)
(2.9 -1.20201e-54 0)
(2.9 -6.84873e-56 0)
(2.9 -3.87419e-57 0)
(2.9 -2.17658e-58 0)
(2.9 -1.2149e-59 0)
(2.9 -6.73923e-61 0)
(2.9 -3.71632e-62 0)
(2.9 -2.03781e-63 0)
(2.9 -1.11141e-64 0)
(2.9 -6.03036e-66 0)
(2.9 -3.25588e-67 0)
(2.9 -1.7496e-68 0)
(2.9 -9.35924e-70 0)
(2.9 -4.98489e-71 0)
(2.9 -2.79062e-72 0)
(2.9 -1.56037e-20 0)
(2.9 -3.30508e-21 0)
(2.9 -2.73468e-22 0)
(2.9 1.28978e-23 0)
(2.9 8.38688e-24 0)
(2.9 1.70765e-24 0)
(2.9 2.55026e-25 0)
(2.9 3.20951e-26 0)
(2.9 3.59492e-27 0)
(2.9 3.68886e-28 0)
(2.9 3.5303e-29 0)
(2.9 3.18965e-30 0)
(2.9 -1.32749e-23 0)
(2.9 -1.89975e-22 0)
(2.9 -6.00013e-22 0)
(2.9 -2.74904e-22 0)
(2.9 -7.21081e-23 0)
(2.9 -1.38436e-23 0)
(2.9 -2.1591e-24 0)
(2.9 -2.89534e-25 0)
(2.9 -3.45764e-26 0)
(2.9 -3.76482e-27 0)
(2.9 -3.80058e-28 0)
(2.9 -3.60131e-29 0)
(2.9 -3.23349e-30 0)
(2.9 -2.77131e-31 0)
(2.9 -2.28067e-32 0)
(2.9 -1.81088e-33 0)
(2.9 -1.39278e-34 0)
(2.9 -1.04107e-35 0)
(2.9 -7.58402e-37 0)
(2.9 -5.39734e-38 0)
(2.9 -3.76024e-39 0)
(2.9 -2.56912e-40 0)
(2.9 -1.72412e-41 0)
(2.9 -1.13805e-42 0)
(2.9 -7.39774e-44 0)
(2.9 -4.74078e-45 0)
(2.9 -2.99803e-46 0)
(2.9 -1.87257e-47 0)
(2.9 -1.1561e-48 0)
(2.9 -7.06026e-50 0)
(2.9 -4.2677e-51 0)
(2.9 -2.55488e-52 0)
(2.9 -1.51561e-53 0)
(2.9 -8.91372e-55 0)
(2.9 -5.19975e-56 0)
(2.9 -3.00982e-57 0)
(2.9 -1.72942e-58 0)
(2.9 -9.86777e-60 0)
(2.9 -5.59296e-61 0)
(2.9 -3.14994e-62 0)
(2.9 -1.7633e-63 0)
(2.9 -9.81361e-65 0)
(2.9 -5.43152e-66 0)
(2.9 -2.99024e-67 0)
(2.9 -1.63786e-68 0)
(2.9 -8.92743e-70 0)
(2.9 -4.84333e-71 0)
(2.9 -2.76358e-72 0)
(2.9 -2.80567e-21 0)
(2.9 -7.45485e-22 0)
(2.9 -8.49379e-23 0)
(2.9 -1.48227e-24 0)
(2.9 1.48556e-24 0)
(2.9 3.83283e-25 0)
(2.9 6.44924e-26 0)
(2.9 8.84337e-27 0)
(2.9 1.06273e-27 0)
(2.9 1.15954e-28 0)
(2.9 1.17291e-29 0)
(2.9 1.11521e-30 0)
(2.9 -2.62997e-24 0)
(2.9 -3.77631e-23 0)
(2.9 -1.14301e-22 0)
(2.9 -5.64812e-23 0)
(2.9 -1.59768e-23 0)
(2.9 -3.29413e-24 0)
(2.9 -5.49319e-25 0)
(2.9 -7.84343e-26 0)
(2.9 -9.93582e-27 0)
(2.9 -1.14371e-27 0)
(2.9 -1.21687e-28 0)
(2.9 -1.21197e-29 0)
(2.9 -1.14095e-30 0)
(2.9 -1.023e-31 0)
(2.9 -8.78944e-33 0)
(2.9 -7.27263e-34 0)
(2.9 -5.81904e-35 0)
(2.9 -4.51793e-36 0)
(2.9 -3.4137e-37 0)
(2.9 -2.51648e-38 0)
(2.9 -1.81378e-39 0)
(2.9 -1.2806e-40 0)
(2.9 -8.87136e-42 0)
(2.9 -6.03876e-43 0)
(2.9 -4.04428e-44 0)
(2.9 -2.6679e-45 0)
(2.9 -1.73531e-46 0)
(2.9 -1.11394e-47 0)
(2.9 -7.06292e-49 0)
(2.9 -4.42664e-50 0)
(2.9 -2.74427e-51 0)
(2.9 -1.68389e-52 0)
(2.9 -1.02325e-53 0)
(2.9 -6.16116e-55 0)
(2.9 -3.67757e-56 0)
(2.9 -2.17707e-57 0)
(2.9 -1.27872e-58 0)
(2.9 -7.45473e-60 0)
(2.9 -4.31518e-61 0)
(2.9 -2.48095e-62 0)
(2.9 -1.41717e-63 0)
(2.9 -8.04514e-65 0)
(2.9 -4.54016e-66 0)
(2.9 -2.54766e-67 0)
(2.9 -1.42183e-68 0)
(2.9 -7.89374e-70 0)
(2.9 -4.3606e-71 0)
(2.9 -2.53517e-72 0)
(2.9 -5.04818e-22 0)
(2.9 -1.62289e-22 0)
(2.9 -2.3212e-23 0)
(2.9 -1.33354e-24 0)
(2.9 2.14321e-25 0)
(2.9 8.05859e-26 0)
(2.9 1.55613e-26 0)
(2.9 2.33554e-27 0)
(2.9 3.01406e-28 0)
(2.9 3.49556e-29 0)
(2.9 3.73391e-30 0)
(2.9 3.73175e-31 0)
(2.9 -5.17328e-25 0)
(2.9 -7.45258e-24 0)
(2.9 -2.17754e-23 0)
(2.9 -1.15214e-23 0)
(2.9 -3.49314e-24 0)
(2.9 -7.69468e-25 0)
(2.9 -1.36578e-25 0)
(2.9 -2.06831e-26 0)
(2.9 -2.76974e-27 0)
(2.9 -3.36027e-28 0)
(2.9 -3.75798e-29 0)
(2.9 -3.9245e-30 0)
(2.9 -3.8652e-31 0)
(2.9 -3.61834e-32 0)
(2.9 -3.23983e-33 0)
(2.9 -2.78894e-34 0)
(2.9 -2.31796e-35 0)
(2.9 -1.86671e-36 0)
(2.9 -1.46105e-37 0)
(2.9 -1.11429e-38 0)
(2.9 -8.29962e-40 0)
(2.9 -6.04906e-41 0)
(2.9 -4.32149e-42 0)
(2.9 -3.03076e-43 0)
(2.9 -2.08941e-44 0)
(2.9 -1.41766e-45 0)
(2.9 -9.47678e-47 0)
(2.9 -6.24752e-48 0)
(2.9 -4.0653e-49 0)
(2.9 -2.6131e-50 0)
(2.9 -1.6604e-51 0)
(2.9 -1.04363e-52 0)
(2.9 -6.49257e-54 0)
(2.9 -4.00003e-55 0)
(2.9 -2.44179e-56 0)
(2.9 -1.47758e-57 0)
(2.9 -8.86711e-59 0)
(2.9 -5.27928e-60 0)
(2.9 -3.11954e-61 0)
(2.9 -1.83012e-62 0)
(2.9 -1.0663e-63 0)
(2.9 -6.17201e-65 0)
(2.9 -3.55009e-66 0)
(2.9 -2.0297e-67 0)
(2.9 -1.15375e-68 0)
(2.9 -6.52204e-70 0)
(2.9 -3.66729e-71 0)
(2.9 -2.17168e-72 0)
(2.9 -9.08885e-23 0)
(2.9 -3.44576e-23 0)
(2.9 -5.89023e-24 0)
(2.9 -5.15826e-25 0)
(2.9 1.6199e-26 0)
(2.9 1.56275e-26 0)
(2.9 3.58038e-27 0)
(2.9 5.92615e-28 0)
(2.9 8.22943e-29 0)
(2.9 1.01465e-29 0)
(2.9 1.1439e-30 0)
(2.9 1.20065e-31 0)
(2.9 -1.01144e-25 0)
(2.9 -1.46178e-24 0)
(2.9 -4.14823e-24 0)
(2.9 -2.33576e-24 0)
(2.9 -7.55069e-25 0)
(2.9 -1.76896e-25 0)
(2.9 -3.32891e-26 0)
(2.9 -5.32827e-27 0)
(2.9 -7.51973e-28 0)
(2.9 -9.5891e-29 0)
(2.9 -1.12446e-29 0)
(2.9 -1.22856e-30 0)
(2.9 -1.26337e-31 0)
(2.9 -1.23257e-32 0)
(2.9 -1.14822e-33 0)
(2.9 -1.02675e-34 0)
(2.9 -8.85175e-36 0)
(2.9 -7.38439e-37 0)
(2.9 -5.97972e-38 0)
(2.9 -4.71296e-39 0)
(2.9 -3.62378e-40 0)
(2.9 -2.72374e-41 0)
(2.9 -2.00483e-42 0)
(2.9 -1.44737e-43 0)
(2.9 -1.0263e-44 0)
(2.9 -7.15658e-46 0)
(2.9 -4.9131e-47 0)
(2.9 -3.32401e-48 0)
(2.9 -2.2183e-49 0)
(2.9 -1.46145e-50 0)
(2.9 -9.51226e-52 0)
(2.9 -6.12087e-53 0)
(2.9 -3.89624e-54 0)
(2.9 -2.45489e-55 0)
(2.9 -1.5318e-56 0)
(2.9 -9.4704e-58 0)
(2.9 -5.80399e-59 0)
(2.9 -3.52745e-60 0)
(2.9 -2.12685e-61 0)
(2.9 -1.27267e-62 0)
(2.9 -7.56038e-64 0)
(2.9 -4.46022e-65 0)
(2.9 -2.61386e-66 0)
(2.9 -1.5221e-67 0)
(2.9 -8.80945e-69 0)
(2.9 -5.06883e-70 0)
(2.9 -2.9002e-71 0)
(2.9 -1.74877e-72 0)
(2.9 -1.63737e-23 0)
(2.9 -7.18164e-24 0)
(2.9 -1.42303e-24 0)
(2.9 -1.60486e-25 0)
(2.9 -4.30083e-27 0)
(2.9 2.69194e-27 0)
(2.9 7.82579e-28 0)
(2.9 1.44622e-28 0)
(2.9 2.16849e-29 0)
(2.9 2.84473e-30 0)
(2.9 3.38424e-31 0)
(2.9 3.72817e-32 0)
(2.9 -1.96719e-26 0)
(2.9 -2.85214e-25 0)
(2.9 -7.90127e-25 0)
(2.9 -4.7101e-25 0)
(2.9 -1.61605e-25 0)
(2.9 -4.01068e-26 0)
(2.9 -7.9741e-27 0)
(2.9 -1.34486e-27 0)
(2.9 -1.99476e-28 0)
(2.9 -2.66709e-29 0)
(2.9 -3.27208e-30 0)
(2.9 -3.73275e-31 0)
(2.9 -4.00049e-32 0)
(2.9 -4.06074e-33 0)
(2.9 -3.92968e-34 0)
(2.9 -3.64506e-35 0)
(2.9 -3.25534e-36 0)
(2.9 -2.80977e-37 0)
(2.9 -2.35138e-38 0)
(2.9 -1.91318e-39 0)
(2.9 -1.51707e-40 0)
(2.9 -1.17485e-41 0)
(2.9 -8.90185e-43 0)
(2.9 -6.61009e-44 0)
(2.9 -4.81714e-45 0)
(2.9 -3.44972e-46 0)
(2.9 -2.4305e-47 0)
(2.9 -1.68645e-48 0)
(2.9 -1.15354e-49 0)
(2.9 -7.7846e-51 0)
(2.9 -5.18715e-52 0)
(2.9 -3.41521e-53 0)
(2.9 -2.22324e-54 0)
(2.9 -1.43184e-55 0)
(2.9 -9.12814e-57 0)
(2.9 -5.76329e-58 0)
(2.9 -3.60549e-59 0)
(2.9 -2.23591e-60 0)
(2.9 -1.37504e-61 0)
(2.9 -8.38906e-63 0)
(2.9 -5.07926e-64 0)
(2.9 -3.05295e-65 0)
(2.9 -1.82224e-66 0)
(2.9 -1.0804e-67 0)
(2.9 -6.36461e-69 0)
(2.9 -3.72632e-70 0)
(2.9 -2.16882e-71 0)
(2.9 -1.33122e-72 0)
(2.9 -2.95145e-24 0)
(2.9 -1.47552e-24 0)
(2.9 -3.31865e-25 0)
(2.9 -4.48663e-26 0)
(2.9 -2.83509e-27 0)
(2.9 3.68592e-28 0)
(2.9 1.6105e-28 0)
(2.9 3.39296e-29 0)
(2.9 5.52354e-30 0)
(2.9 7.72226e-31 0)
(2.9 9.69645e-32 0)
(2.9 1.12072e-32 0)
(2.9 -3.80869e-27 0)
(2.9 -5.53947e-26 0)
(2.9 -1.50465e-25 0)
(2.9 -9.45345e-26 0)
(2.9 -3.42886e-26 0)
(2.9 -8.98301e-27 0)
(2.9 -1.88112e-27 0)
(2.9 -3.33365e-28 0)
(2.9 -5.18392e-29 0)
(2.9 -7.25108e-30 0)
(2.9 -9.28821e-31 0)
(2.9 -1.1043e-31 0)
(2.9 -1.23137e-32 0)
(2.9 -1.29845e-33 0)
(2.9 -1.30345e-34 0)
(2.9 -1.2525e-35 0)
(2.9 -1.15736e-36 0)
(2.9 -1.03238e-37 0)
(2.9 -8.91903e-39 0)
(2.9 -7.48408e-40 0)
(2.9 -6.11459e-41 0)
(2.9 -4.87457e-42 0)
(2.9 -3.79897e-43 0)
(2.9 -2.89923e-44 0)
(2.9 -2.16985e-45 0)
(2.9 -1.59473e-46 0)
(2.9 -1.15232e-47 0)
(2.9 -8.19504e-49 0)
(2.9 -5.7418e-50 0)
(2.9 -3.96685e-51 0)
(2.9 -2.70456e-52 0)
(2.9 -1.82104e-53 0)
(2.9 -1.21173e-54 0)
(2.9 -7.97314e-56 0)
(2.9 -5.19082e-57 0)
(2.9 -3.34546e-58 0)
(2.9 -2.13551e-59 0)
(2.9 -1.35074e-60 0)
(2.9 -8.46927e-62 0)
(2.9 -5.26621e-63 0)
(2.9 -3.24853e-64 0)
(2.9 -1.98866e-65 0)
(2.9 -1.20854e-66 0)
(2.9 -7.29312e-68 0)
(2.9 -4.37164e-69 0)
(2.9 -2.60357e-70 0)
(2.9 -1.54101e-71 0)
(2.9 -9.62566e-73 0)
(2.9 -5.32306e-25 0)
(2.9 -2.99723e-25 0)
(2.9 -7.53508e-26 0)
(2.9 -1.1746e-26 0)
(2.9 -1.05806e-27 0)
(2.9 2.00856e-29 0)
(2.9 3.06106e-29 0)
(2.9 7.63382e-30 0)
(2.9 1.36102e-30 0)
(2.9 2.03328e-31 0)
(2.9 2.69667e-32 0)
(2.9 3.26989e-33 0)
(2.9 -7.34467e-28 0)
(2.9 -1.07157e-26 0)
(2.9 -2.86449e-26 0)
(2.9 -1.88947e-26 0)
(2.9 -7.21948e-27 0)
(2.9 -1.99037e-27 0)
(2.9 -4.37776e-28 0)
(2.9 -8.13168e-29 0)
(2.9 -1.32271e-29 0)
(2.9 -1.93163e-30 0)
(2.9 -2.57863e-31 0)
(2.9 -3.18977e-32 0)
(2.9 -3.69493e-33 0)
(2.9 -4.04169e-34 0)
(2.9 -4.20314e-35 0)
(2.9 -4.17891e-36 0)
(2.9 -3.99076e-37 0)
(2.9 -3.67501e-38 0)
(2.9 -3.27442e-39 0)
(2.9 -2.831e-40 0)
(2.9 -2.38104e-41 0)
(2.9 -1.95241e-42 0)
(2.9 -1.56385e-43 0)
(2.9 -1.22569e-44 0)
(2.9 -9.41441e-46 0)
(2.9 -7.0962e-47 0)
(2.9 -5.25547e-48 0)
(2.9 -3.82852e-49 0)
(2.9 -2.74613e-50 0)
(2.9 -1.94123e-51 0)
(2.9 -1.3535e-52 0)
(2.9 -9.31534e-54 0)
(2.9 -6.33285e-55 0)
(2.9 -4.25538e-56 0)
(2.9 -2.82796e-57 0)
(2.9 -1.8597e-58 0)
(2.9 -1.21078e-59 0)
(2.9 -7.80807e-61 0)
(2.9 -4.98965e-62 0)
(2.9 -3.16097e-63 0)
(2.9 -1.98591e-64 0)
(2.9 -1.23777e-65 0)
(2.9 -7.65616e-67 0)
(2.9 -4.70114e-68 0)
(2.9 -2.86646e-69 0)
(2.9 -1.73604e-70 0)
(2.9 -1.04463e-71 0)
(2.9 -6.63846e-73 0)
(2.9 -9.60536e-26 0)
(2.9 -6.03213e-26 0)
(2.9 -1.67517e-26 0)
(2.9 -2.93884e-27 0)
(2.9 -3.29126e-28 0)
(2.9 -1.121e-29 0)
(2.9 5.13694e-30 0)
(2.9 1.63805e-30 0)
(2.9 3.24315e-31 0)
(2.9 5.19886e-32 0)
(2.9 7.29252e-33 0)
(2.9 9.27922e-34 0)
(2.9 -1.41135e-28 0)
(2.9 -2.0655e-27 0)
(2.9 -5.45141e-27 0)
(2.9 -3.76241e-27 0)
(2.9 -1.50968e-27 0)
(2.9 -4.36771e-28 0)
(2.9 -1.00649e-28 0)
(2.9 -1.95515e-29 0)
(2.9 -3.31988e-30 0)
(2.9 -5.05226e-31 0)
(2.9 -7.01696e-32 0)
(2.9 -9.01685e-33 0)
(2.9 -1.08348e-33 0)
(2.9 -1.22778e-34 0)
(2.9 -1.32112e-35 0)
(2.9 -1.35749e-36 0)
(2.9 -1.33835e-37 0)
(2.9 -1.27108e-38 0)
(2.9 -1.16691e-39 0)
(2.9 -1.0386e-40 0)
(2.9 -8.98492e-42 0)
(2.9 -7.57209e-43 0)
(2.9 -6.22891e-44 0)
(2.9 -5.01032e-45 0)
(2.9 -3.9469e-46 0)
(2.9 -3.04924e-47 0)
(2.9 -2.31323e-48 0)
(2.9 -1.72517e-49 0)
(2.9 -1.26613e-50 0)
(2.9 -9.15307e-52 0)
(2.9 -6.52329e-53 0)
(2.9 -4.58689e-54 0)
(2.9 -3.18444e-55 0)
(2.9 -2.18424e-56 0)
(2.9 -1.48109e-57 0)
(2.9 -9.93401e-59 0)
(2.9 -6.59408e-60 0)
(2.9 -4.33393e-61 0)
(2.9 -2.82165e-62 0)
(2.9 -1.82054e-63 0)
(2.9 -1.16451e-64 0)
(2.9 -7.38742e-66 0)
(2.9 -4.6494e-67 0)
(2.9 -2.904e-68 0)
(2.9 -1.80063e-69 0)
(2.9 -1.10867e-70 0)
(2.9 -6.78042e-72 0)
(2.9 -4.38249e-73 0)
(2.9 -1.73412e-26 0)
(2.9 -1.2047e-26 0)
(2.9 -3.66108e-27 0)
(2.9 -7.10976e-28 0)
(2.9 -9.31242e-29 0)
(2.9 -6.28841e-30 0)
(2.9 6.62594e-31 0)
(2.9 3.31558e-31 0)
(2.9 7.46122e-32 0)
(2.9 1.29154e-32 0)
(2.9 1.92017e-33 0)
(2.9 2.56552e-34 0)
(2.9 -2.70354e-29 0)
(2.9 -3.96877e-28 0)
(2.9 -1.03705e-27 0)
(2.9 -7.46674e-28 0)
(2.9 -3.13757e-28 0)
(2.9 -9.50189e-29 0)
(2.9 -2.28883e-29 0)
(2.9 -4.64019e-30 0)
(2.9 -8.20959e-31 0)
(2.9 -1.29971e-31 0)
(2.9 -1.87511e-32 0)
(2.9 -2.49943e-33 0)
(2.9 -3.11133e-34 0)
(2.9 -3.64799e-35 0)
(2.9 -4.05678e-36 0)
(2.9 -4.30348e-37 0)
(2.9 -4.37578e-38 0)
(2.9 -4.28207e-39 0)
(2.9 -4.04693e-40 0)
(2.9 -3.70492e-41 0)
(2.9 -3.29417e-42 0)
(2.9 -2.85118e-43 0)
(2.9 -2.40708e-44 0)
(2.9 -1.98575e-45 0)
(2.9 -1.60332e-46 0)
(2.9 -1.26882e-47 0)
(2.9 -9.8542e-49 0)
(2.9 -7.51957e-50 0)
(2.9 -5.64381e-51 0)
(2.9 -4.17039e-52 0)
(2.9 -3.0366e-53 0)
(2.9 -2.18049e-54 0)
(2.9 -1.54524e-55 0)
(2.9 -1.08145e-56 0)
(2.9 -7.47931e-58 0)
(2.9 -5.11458e-59 0)
(2.9 -3.46008e-60 0)
(2.9 -2.31689e-61 0)
(2.9 -1.53628e-62 0)
(2.9 -1.00918e-63 0)
(2.9 -6.57019e-65 0)
(2.9 -4.24091e-66 0)
(2.9 -2.71499e-67 0)
(2.9 -1.72444e-68 0)
(2.9 -1.08702e-69 0)
(2.9 -6.80235e-71 0)
(2.9 -4.22717e-72 0)
(2.9 -2.77821e-73 0)
(2.9 -3.13219e-27 0)
(2.9 -2.39039e-27 0)
(2.9 -7.88876e-28 0)
(2.9 -1.67553e-28 0)
(2.9 -2.48161e-29 0)
(2.9 -2.28439e-30 0)
(2.9 1.88578e-32 0)
(2.9 6.18955e-32 0)
(2.9 1.65134e-32 0)
(2.9 3.11679e-33 0)
(2.9 4.92716e-34 0)
(2.9 6.92014e-35 0)
(2.9 -5.16424e-30 0)
(2.9 -7.60417e-29 0)
(2.9 -1.97196e-28 0)
(2.9 -1.47729e-28 0)
(2.9 -6.48461e-29 0)
(2.9 -2.05098e-29 0)
(2.9 -5.1537e-30 0)
(2.9 -1.08837e-30 0)
(2.9 -2.00289e-31 0)
(2.9 -3.29353e-32 0)
(2.9 -4.92863e-33 0)
(2.9 -6.80559e-34 0)
(2.9 -8.76537e-35 0)
(2.9 -1.06214e-35 0)
(2.9 -1.21942e-36 0)
(2.9 -1.33413e-37 0)
(2.9 -1.39774e-38 0)
(2.9 -1.40811e-39 0)
(2.9 -1.36885e-40 0)
(2.9 -1.28799e-41 0)
(2.9 -1.17614e-42 0)
(2.9 -1.04474e-43 0)
(2.9 -9.04605e-45 0)
(2.9 -7.64892e-46 0)
(2.9 -6.32617e-47 0)
(2.9 -5.12526e-48 0)
(2.9 -4.07284e-49 0)
(2.9 -3.17835e-50 0)
(2.9 -2.43837e-51 0)
(2.9 -1.84084e-52 0)
(2.9 -1.3688e-53 0)
(2.9 -1.0033e-54 0)
(2.9 -7.25468e-56 0)
(2.9 -5.17847e-57 0)
(2.9 -3.65141e-58 0)
(2.9 -2.5448e-59 0)
(2.9 -1.75396e-60 0)
(2.9 -1.19614e-61 0)
(2.9 -8.07507e-63 0)
(2.9 -5.39893e-64 0)
(2.9 -3.5764e-65 0)
(2.9 -2.34817e-66 0)
(2.9 -1.52868e-67 0)
(2.9 -9.87085e-69 0)
(2.9 -6.3239e-70 0)
(2.9 -4.02104e-71 0)
(2.9 -2.53836e-72 0)
(2.9 -1.69594e-73 0)
(2.9 -5.65987e-28 0)
(2.9 -4.7168e-28 0)
(2.9 -1.67964e-28 0)
(2.9 -3.86601e-29 0)
(2.9 -6.33959e-30 0)
(2.9 -7.08487e-31 0)
(2.9 -2.8539e-32 0)
(2.9 1.01064e-32 0)
(2.9 3.49223e-33 0)
(2.9 7.29828e-34 0)
(2.9 1.23262e-34 0)
(2.9 1.82294e-35 0)
(2.9 -9.83956e-31 0)
(2.9 -1.45323e-29 0)
(2.9 -3.74796e-29 0)
(2.9 -2.91464e-29 0)
(2.9 -1.33346e-29 0)
(2.9 -4.39563e-30 0)
(2.9 -1.15004e-30 0)
(2.9 -2.52553e-31 0)
(2.9 -4.82666e-32 0)
(2.9 -8.23178e-33 0)
(2.9 -1.27602e-33 0)
(2.9 -1.82298e-34 0)
(2.9 -2.42652e-35 0)
(2.9 -3.03552e-36 0)
(2.9 -3.59423e-37 0)
(2.9 -4.05177e-38 0)
(2.9 -4.37005e-39 0)
(2.9 -4.52838e-40 0)
(2.9 -4.52447e-41 0)
(2.9 -4.37226e-42 0)
(2.9 -4.09759e-43 0)
(2.9 -3.73305e-44 0)
(2.9 -3.31301e-45 0)
(2.9 -2.86953e-46 0)
(2.9 -2.42968e-47 0)
(2.9 -2.01412e-48 0)
(2.9 -1.63682e-49 0)
(2.9 -1.30564e-50 0)
(2.9 -1.02337e-51 0)
(2.9 -7.88974e-53 0)
(2.9 -5.98843e-54 0)
(2.9 -4.47867e-55 0)
(2.9 -3.30298e-56 0)
(2.9 -2.40377e-57 0)
(2.9 -1.72741e-58 0)
(2.9 -1.22653e-59 0)
(2.9 -8.60964e-61 0)
(2.9 -5.97786e-62 0)
(2.9 -4.10744e-63 0)
(2.9 -2.79422e-64 0)
(2.9 -1.88277e-65 0)
(2.9 -1.25706e-66 0)
(2.9 -8.31955e-68 0)
(2.9 -5.45983e-69 0)
(2.9 -3.55417e-70 0)
(2.9 -2.29569e-71 0)
(2.9 -1.47178e-72 0)
(2.9 -9.99403e-74 0)
(2.9 -1.02316e-28 0)
(2.9 -9.26273e-29 0)
(2.9 -3.53977e-29 0)
(2.9 -8.76534e-30 0)
(2.9 -1.56873e-30 0)
(2.9 -2.01686e-31 0)
(2.9 -1.4368e-32 0)
(2.9 1.2122e-33 0)
(2.9 6.96743e-34 0)
(2.9 1.65422e-34 0)
(2.9 3.00594e-35 0)
(2.9 4.69299e-36 0)
(2.9 -1.87044e-31 0)
(2.9 -2.77084e-30 0)
(2.9 -7.11993e-30 0)
(2.9 -5.73569e-30 0)
(2.9 -2.72941e-30 0)
(2.9 -9.35958e-31 0)
(2.9 -2.54525e-31 0)
(2.9 -5.80319e-32 0)
(2.9 -1.1501e-32 0)
(2.9 -2.0316e-33 0)
(2.9 -3.25807e-34 0)
(2.9 -4.81021e-35 0)
(2.9 -6.60983e-36 0)
(2.9 -8.52779e-37 0)
(2.9 -1.0404e-37 0)
(2.9 -1.20739e-38 0)
(2.9 -1.33949e-39 0)
(2.9 -1.4266e-40 0)
(2.9 -1.46389e-41 0)
(2.9 -1.45186e-42 0)
(2.9 -1.39551e-43 0)
(2.9 -1.3031e-44 0)
(2.9 -1.18464e-45 0)
(2.9 -1.05045e-46 0)
(2.9 -9.10067e-48 0)
(2.9 -7.71515e-49 0)
(2.9 -6.40884e-50 0)
(2.9 -5.22293e-51 0)
(2.9 -4.1806e-52 0)
(2.9 -3.28999e-53 0)
(2.9 -2.54794e-54 0)
(2.9 -1.94355e-55 0)
(2.9 -1.46135e-56 0)
(2.9 -1.08389e-57 0)
(2.9 -7.93554e-59 0)
(2.9 -5.73851e-60 0)
(2.9 -4.10113e-61 0)
(2.9 -2.89817e-62 0)
(2.9 -2.02617e-63 0)
(2.9 -1.40205e-64 0)
(2.9 -9.6067e-66 0)
(2.9 -6.52061e-67 0)
(2.9 -4.38601e-68 0)
(2.9 -2.92466e-69 0)
(2.9 -1.93399e-70 0)
(2.9 -1.26865e-71 0)
(2.9 -8.25816e-73 0)
(2.9 -5.69796e-74 0)
(2.9 -1.85034e-29 0)
(2.9 -1.81136e-29 0)
(2.9 -7.39396e-30 0)
(2.9 -1.95815e-30 0)
(2.9 -3.78527e-31 0)
(2.9 -5.43211e-32 0)
(2.9 -5.09941e-33 0)
(2.9 -6.7867e-36 0)
(2.9 1.27795e-34 0)
(2.9 3.61335e-35 0)
(2.9 7.14023e-36 0)
(2.9 1.18111e-36 0)
(2.9 -3.54815e-32 0)
(2.9 -5.27191e-31 0)
(2.9 -1.35186e-30 0)
(2.9 -1.12604e-30 0)
(2.9 -5.56312e-31 0)
(2.9 -1.98108e-31 0)
(2.9 -5.59072e-32 0)
(2.9 -1.32149e-32 0)
(2.9 -2.71217e-33 0)
(2.9 -4.95602e-34 0)
(2.9 -8.21305e-35 0)
(2.9 -1.25174e-35 0)
(2.9 -1.77388e-36 0)
(2.9 -2.35806e-37 0)
(2.9 -2.96158e-38 0)
(2.9 -3.53523e-39 0)
(2.9 -4.031e-40 0)
(2.9 -4.40918e-41 0)
(2.9 -4.64347e-42 0)
(2.9 -4.72328e-43 0)
(2.9 -4.65334e-44 0)
(2.9 -4.45103e-45 0)
(2.9 -4.14255e-46 0)
(2.9 -3.75853e-47 0)
(2.9 -3.33007e-48 0)
(2.9 -2.88566e-49 0)
(2.9 -2.44902e-50 0)
(2.9 -2.03818e-51 0)
(2.9 -1.6653e-52 0)
(2.9 -1.33719e-53 0)
(2.9 -1.05623e-54 0)
(2.9 -8.21425e-56 0)
(2.9 -6.29464e-57 0)
(2.9 -4.75651e-58 0)
(2.9 -3.54666e-59 0)
(2.9 -2.61119e-60 0)
(2.9 -1.89933e-61 0)
(2.9 -1.36567e-62 0)
(2.9 -9.7117e-64 0)
(2.9 -6.83369e-65 0)
(2.9 -4.76014e-66 0)
(2.9 -3.28376e-67 0)
(2.9 -2.24428e-68 0)
(2.9 -1.5202e-69 0)
(2.9 -1.02091e-70 0)
(2.9 -6.79965e-72 0)
(2.9 -4.49305e-73 0)
(2.9 -3.14933e-74 0)
(2.9 -3.34748e-30 0)
(2.9 -3.52908e-30 0)
(2.9 -1.5325e-30 0)
(2.9 -4.31916e-31 0)
(2.9 -8.94758e-32 0)
(2.9 -1.40629e-32 0)
(2.9 -1.57392e-33 0)
(2.9 -7.2167e-35 0)
(2.9 2.02456e-35 0)
(2.9 7.5468e-36 0)
(2.9 1.64927e-36 0)
(2.9 2.90582e-37 0)
(2.9 -6.71778e-33 0)
(2.9 -1.00112e-31 0)
(2.9 -2.5654e-31 0)
(2.9 -2.20579e-31 0)
(2.9 -1.12946e-31 0)
(2.9 -4.17025e-32 0)
(2.9 -1.21951e-32 0)
(2.9 -2.98433e-33 0)
(2.9 -6.3349e-34 0)
(2.9 -1.19608e-34 0)