/*--------------------------------*- C++ -*----------------------------------*\
| =========                 |                                                 |
| \\      /  F ield         | OpenFOAM: The Open Source CFD Toolbox           |
|  \\    /   O peration     | Version:  2412                                  |
|   \\  /    A nd           | Website:  www.openfoam.com                      |
|    \\/     M anipulation  |                                                 |
\*---------------------------------------------------------------------------*/
FoamFile
{
    version     2.0;
    format      ascii;
    arch        "LSB;label=32;scalar=64";
    class       volVectorField;
    location    "0.0292969";
    object      U;
}
// * * * * * * * * * * * * * * * * * * * * * * * * * * * * * * * * * * * * * //

dimensions      [0 1 -1 0 0 0 0];

internalField   nonuniform List<vector> 
100
(
(2.36641 0 0)
(7.13647 0 0)
(11.8553 0 0)
(16.6183 0 0)
(21.3128 0 0)
(26.1216 0 0)
(30.7402 0 0)
(35.6265 0 0)
(40.1147 0 0)
(45.1299 0 0)
(49.4868 0 0)
(54.5432 0 0)
(58.9877 0 0)
(63.937 0 0)
(68.6508 0 0)
(73.3782 0 0)
(78.3234 0 0)
(82.8574 0 0)
(87.9104 0 0)
(92.3983 0 0)
(97.4556 0 0)
(101.999 0 0)
(107 0 0)
(111.63 0 0)
(116.56 0 0)
(121.25 0 0)
(126.12 0 0)
(130.855 0 0)
(135.683 0 0)
(140.439 0 0)
(145.242 0 0)
(150.012 0 0)
(154.796 0 0)
(159.559 0 0)
(164.314 0 0)
(169.068 0 0)
(173.81 0 0)
(178.543 0 0)
(183.302 0 0)
(188.072 0 0)
(192.714 0 0)
(197.244 0 0)
(201.837 0 0)
(206.305 0 0)
(210.497 0 0)
(214.522 0 0)
(218.446 0 0)
(221.843 0 0)
(224.436 0 0)
(226.321 0 0)
(228.289 0 0)
(230.385 0 0)
(232.12 0 0)
(234.436 0 0)
(236.211 0 0)
(237.354 0 0)
(237.818 0 0)
(238.571 0 0)
(203.844 0 0)
(22.8263 0 0)
(-36.9642 0 0)
(-39.1737 0 0)
(-37.7597 0 0)
(-27.8767 0 0)
(-15.331 0 0)
(0.053476 0 0)
(11.1047 0 0)
(12.0213 0 0)
(13.8147 0 0)
(2.39891 0 0)
(4.00978 0 0)
(-2.31419 0 0)
(-3.4784 0 0)
(0.0579409 0 0)
(-2.68751 0 0)
(3.41486 0 0)
(1.14157 0 0)
(2.98147 0 0)
(-1.8134 0 0)
(-5.00219 0 0)
(-3.35707 0 0)
(-2.79519 0 0)
(1.57749 0 0)
(5.65855 0 0)
(6.43623 0 0)
(4.61814 0 0)
(-1.3524 0 0)
(-4.4486 0 0)
(-6.11527 0 0)
(-2.39435 0 0)
(0.679732 0 0)
(3.00244 0 0)
(3.12241 0 0)
(0.95895 0 0)
(-3.03537 0 0)
(-3.2663 0 0)
(-1.02132 0 0)
(1.18308 0 0)
(3.40574 0 0)
(1.80187 0 0)
)
;

boundaryField
{
    sides
    {
        type            fixedValue;
        value           uniform (0 0 0);
    }
    empty
    {
        type            empty;
    }
}


// ************************************************************************* //
