/*--------------------------------*- C++ -*----------------------------------*\
| =========                 |                                                 |
| \\      /  F ield         | OpenFOAM: The Open Source CFD Toolbox           |
|  \\    /   O peration     | Version:  2412                                  |
|   \\  /    A nd           | Website:  www.openfoam.com                      |
|    \\/     M anipulation  |                                                 |
\*---------------------------------------------------------------------------*/
FoamFile
{
    version     2.0;
    format      ascii;
    arch        "LSB;label=32;scalar=64";
    class       volScalarField;
    location    "0.0265534";
    object      p;
}
// * * * * * * * * * * * * * * * * * * * * * * * * * * * * * * * * * * * * * //

dimensions      [1 -1 -2 0 0 0 0];

internalField   nonuniform List<scalar> 
100
(
29856.2
29860.5
29849.4
29855.1
29836.7
29845.2
29809.7
29842
29761.1
29861.2
29673.5
29911.7
29552.4
29963.6
29433.6
29958.5
29363.5
29884.5
29346.5
29767.3
29347.6
29626.2
29327.8
29483.2
29286.8
29351.6
29217.7
29223.7
29122.4
29090.6
29003.3
28954.8
28887.5
28844.9
28795.6
28752.1
28684.6
28597.8
28494.4
28390.4
28248.1
28101.5
27974.7
27900.1
27982.1
28246.4
28339.6
28125.5
27899.8
27981.9
29085.6
31609.9
32596.8
32690.4
32687.7
32597.6
32631.9
32570.8
32041.2
31450.7
31206.8
31806.3
31721.8
31723.3
36877.1
81995.9
90602.1
97344.9
92987.3
95063.3
104931
93737.6
106531
93803.2
102340
99345.8
94352.8
97369.9
90322.6
95576.1
97030
99937.9
101460
99177.8
96335.2
95125.7
94264.2
97073.8
99337.1
99436.7
99024.4
97916.5
94907.8
96224.1
95792.4
97960.8
97826.9
99002.9
97534.6
97646.4
)
;

boundaryField
{
    sides
    {
        type            zeroGradient;
    }
    empty
    {
        type            empty;
    }
}


// ************************************************************************* //
