/*--------------------------------*- C++ -*----------------------------------*\
| =========                 |                                                 |
| \\      /  F ield         | OpenFOAM: The Open Source CFD Toolbox           |
|  \\    /   O peration     | Version:  2412                                  |
|   \\  /    A nd           | Website:  www.openfoam.com                      |
|    \\/     M anipulation  |                                                 |
\*---------------------------------------------------------------------------*/
FoamFile
{
    version     2.0;
    format      ascii;
    arch        "LSB;label=32;scalar=64";
    class       volScalarField;
    location    "0.0405597";
    object      rhoY_Y_N2;
}
// * * * * * * * * * * * * * * * * * * * * * * * * * * * * * * * * * * * * * //

dimensions      [1 -3 0 0 0 0 0];

internalField   nonuniform List<scalar> 
100
(
0.246933
0.246796
0.24658
0.246319
0.246068
0.24586
0.245706
0.245608
0.245561
0.245551
0.24555
0.245529
0.245468
0.24539
0.245334
0.245312
0.245315
0.245348
0.24539
0.245248
0.244782
0.248955
0.390646
0.610414
0.627923
0.612567
0.600181
0.595749
0.594329
0.598354
0.605008
0.625383
0.644414
0.651588
0.657315
0.659761
0.645143
0.626689
0.625387
0.631318
0.640797
0.660198
0.675901
0.684235
0.691344
0.695606
0.691602
0.691135
0.697736
0.968163
0.776422
0.778629
0.771161
0.759332
0.758036
0.762838
0.773686
0.784369
0.791314
0.789178
0.781688
0.782617
0.79029
0.809033
0.829534
0.840566
0.842795
0.831682
0.819314
0.815552
0.823588
0.83242
0.849846
0.862161
0.872669
0.878284
0.877301
0.883118
0.88694
0.892913
0.89569
0.897568
0.907688
0.924367
0.939815
0.949423
0.938215
0.841569
0.503497
0.219137
0.0666997
0.0131512
0.00222811
0.000241473
1.64898e-05
-2.08877e-06
-1.28953e-07
-4.33778e-08
-4.00737e-09
-2.01132e-10
)
;

boundaryField
{
    sides
    {
        type            calculated;
        value           nonuniform List<scalar> 2(0 1.12308);
    }
    empty
    {
        type            empty;
    }
}


// ************************************************************************* //
