/*--------------------------------*- C++ -*----------------------------------*\
| =========                 |                                                 |
| \\      /  F ield         | OpenFOAM: The Open Source CFD Toolbox           |
|  \\    /   O peration     | Version:  2412                                  |
|   \\  /    A nd           | Website:  www.openfoam.com                      |
|    \\/     M anipulation  |                                                 |
\*---------------------------------------------------------------------------*/
FoamFile
{
    version     2.0;
    format      ascii;
    arch        "LSB;label=32;scalar=64";
    class       volVectorField;
    location    "0.00775385";
    object      U;
}
// * * * * * * * * * * * * * * * * * * * * * * * * * * * * * * * * * * * * * //

dimensions      [0 1 -1 0 0 0 0];

internalField   nonuniform List<vector> 
100
(
(2.66693e-14 0 0)
(1.12561e-13 0 0)
(2.18753e-14 0 0)
(3.12818e-14 0 0)
(9.2199e-15 0 0)
(-1.03282e-13 0 0)
(-1.14232e-13 0 0)
(-1.40251e-13 0 0)
(-9.00226e-14 0 0)
(-1.51928e-13 0 0)
(-1.28499e-13 0 0)
(-1.22867e-13 0 0)
(-8.0984e-14 0 0)
(-2.40527e-14 0 0)
(6.64959e-14 0 0)
(5.30253e-14 0 0)
(1.12753e-13 0 0)
(1.46744e-13 0 0)
(4.51479e-12 0 0)
(2.26574e-09 0 0)
(8.64329e-07 0 0)
(0.000201348 0 0)
(0.0209156 0 0)
(0.673897 0 0)
(5.7924 0 0)
(18.432 0 0)
(33.6898 0 0)
(47.3885 0 0)
(59.3004 0 0)
(70.2846 0 0)
(80.9072 0 0)
(91.4653 0 0)
(101.942 0 0)
(112.645 0 0)
(122.944 0 0)
(134.109 0 0)
(143.806 0 0)
(155.497 0 0)
(164.957 0 0)
(175.496 0 0)
(186.597 0 0)
(195.502 0 0)
(206.696 0 0)
(216.359 0 0)
(227.822 0 0)
(238.37 0 0)
(247.059 0 0)
(257.078 0 0)
(269.62 0 0)
(279.615 0 0)
(282.736 0 0)
(280.429 0 0)
(279.899 0 0)
(287.558 0 0)
(288.351 0 0)
(281.099 0 0)
(276.533 0 0)
(279.39 0 0)
(288.634 0 0)
(288.968 0 0)
(282.39 0 0)
(278.085 0 0)
(278.994 0 0)
(286.726 0 0)
(287.172 0 0)
(285.335 0 0)
(280.444 0 0)
(277.48 0 0)
(278.764 0 0)
(281.511 0 0)
(284.319 0 0)
(282.028 0 0)
(279.175 0 0)
(280.863 0 0)
(282.872 0 0)
(284.156 0 0)
(283.629 0 0)
(279.501 0 0)
(277.008 0 0)
(276.739 0 0)
(277.188 0 0)
(281.011 0 0)
(283.364 0 0)
(283.634 0 0)
(285.426 0 0)
(291.722 0 0)
(283.024 0 0)
(172.027 0 0)
(10.1351 0 0)
(0.02263 0 0)
(5.90284e-06 0 0)
(4.82392e-10 0 0)
(-7.72112e-14 0 0)
(-1.23299e-13 0 0)
(-6.77145e-14 0 0)
(-1.51994e-13 0 0)
(-1.58541e-13 0 0)
(-2.49447e-15 0 0)
(6.5945e-14 0 0)
(6.51978e-14 0 0)
)
;

boundaryField
{
    sides
    {
        type            fixedValue;
        value           uniform (0 0 0);
    }
    empty
    {
        type            empty;
    }
}


// ************************************************************************* //
