/*--------------------------------*- C++ -*----------------------------------*\
| =========                 |                                                 |
| \\      /  F ield         | OpenFOAM: The Open Source CFD Toolbox           |
|  \\    /   O peration     | Version:  2412                                  |
|   \\  /    A nd           | Website:  www.openfoam.com                      |
|    \\/     M anipulation  |                                                 |
\*---------------------------------------------------------------------------*/
FoamFile
{
    version     2.0;
    format      ascii;
    arch        "LSB;label=32;scalar=64";
    class       volScalarField;
    location    "0.0446505";
    object      rho;
}
// * * * * * * * * * * * * * * * * * * * * * * * * * * * * * * * * * * * * * //

dimensions      [1 -3 0 0 0 0 0];

internalField   nonuniform List<scalar> 
100
(
0.216618
0.216688
0.21653
0.216163
0.219159
0.324293
0.511302
0.526734
0.509144
0.507825
0.526649
0.549144
0.554079
0.557744
0.561197
0.554235
0.527833
0.519515
0.522961
0.526977
0.537664
0.563723
0.577956
0.582918
0.587098
0.584705
0.576169
0.576204
0.580776
0.589459
0.601875
0.608406
0.612103
0.605408
0.599034
0.602196
0.608743
0.624582
0.6363
0.642066
0.641215
0.629921
0.627421
0.632454
0.645151
0.673296
0.688453
0.695214
0.69498
0.674686
0.658954
0.658874
0.664487
0.674806
0.695406
0.710781
0.71896
0.725555
0.727564
0.72751
0.731322
0.735816
0.737203
0.736115
0.740434
0.747564
0.756971
0.766409
0.772269
0.772242
0.767866
0.769961
0.777116
0.802902
0.840704
0.854097
0.864281
0.863099
0.837236
0.805531
0.78665
0.784958
0.782355
0.781265
0.776676
0.768349
0.755101
0.735305
0.710553
0.68631
0.669977
0.660983
0.655016
0.651546
0.651387
0.653371
0.657724
0.661917
0.665616
0.669861
)
;

boundaryField
{
    sides
    {
        type            calculated;
        value           nonuniform List<scalar> 2(0.669861 0.216618);
    }
    empty
    {
        type            empty;
    }
}


// ************************************************************************* //
