/*--------------------------------*- C++ -*----------------------------------*\
| =========                 |                                                 |
| \\      /  F ield         | OpenFOAM: The Open Source CFD Toolbox           |
|  \\    /   O peration     | Version:  2412                                  |
|   \\  /    A nd           | Website:  www.openfoam.com                      |
|    \\/     M anipulation  |                                                 |
\*---------------------------------------------------------------------------*/
FoamFile
{
    version     2.0;
    format      ascii;
    arch        "LSB;label=32;scalar=64";
    class       volVectorField;
    location    "3.65026e-05";
    object      U;
}
// * * * * * * * * * * * * * * * * * * * * * * * * * * * * * * * * * * * * * //

dimensions      [0 1 -1 0 0 0 0];

internalField   nonuniform List<vector> 
1800
(
(2.9 -2.4277e-14 0)
(2.9 1.69546e-14 0)
(2.9 2.38213e-14 0)
(2.9 -1.65233e-14 0)
(2.9 -2.94842e-14 0)
(2.9 -4.91268e-14 0)
(2.9 -5.64528e-14 0)
(2.9 -2.06615e-14 0)
(2.9 2.46966e-15 0)
(2.9 -4.88064e-15 0)
(2.9 5.45181e-16 0)
(2.9 -2.71705e-14 0)
(2.9 -2.9635e-14 0)
(2.9 -1.24183e-14 0)
(2.9 -5.52221e-14 0)
(2.9 -4.96508e-15 0)
(2.9 1.84365e-15 0)
(2.9 -1.88739e-14 0)
(2.9 -3.17624e-14 0)
(2.9 1.63284e-15 0)
(2.9 -2.26422e-14 0)
(2.9 -1.74416e-15 0)
(2.9 -9.36476e-15 0)
(2.9 4.69604e-15 0)
(2.9 -3.32496e-15 0)
(2.9 -2.61729e-14 0)
(2.9 -3.05495e-14 0)
(2.9 -1.20322e-14 0)
(2.9 2.23664e-14 0)
(2.9 4.5701e-14 0)
(2.9 1.89752e-14 0)
(2.9 3.20247e-14 0)
(2.9 -2.0956e-14 0)
(2.9 -4.99863e-14 0)
(2.9 3.02845e-14 0)
(2.9 5.26903e-15 0)
(2.9 1.25013e-14 0)
(2.9 4.01328e-14 0)
(2.9 6.2216e-15 0)
(2.9 2.55017e-15 0)
(2.9 4.33251e-16 0)
(2.9 9.24426e-15 0)
(2.9 -2.99666e-15 0)
(2.9 1.03312e-15 0)
(2.9 -2.14168e-14 0)
(2.9 3.40756e-15 0)
(2.9 4.85816e-14 0)
(2.9 6.29592e-14 0)
(2.9 1.19062e-14 0)
(2.9 2.87189e-14 0)
(2.9 4.05197e-15 0)
(2.9 1.56436e-14 0)
(2.9 2.19597e-14 0)
(2.9 -1.16425e-14 0)
(2.9 1.39905e-14 0)
(2.9 8.15864e-15 0)
(2.9 -2.82089e-14 0)
(2.9 5.39726e-15 0)
(2.9 -2.44408e-14 0)
(2.9 -3.71914e-14 0)
(2.9 -5.43571e-14 0)
(2.9 8.3254e-15 0)
(2.9 -8.82368e-15 0)
(2.9 -3.97351e-14 0)
(2.9 -5.79711e-14 0)
(2.9 -1.08099e-13 0)
(2.9 -1.0161e-13 0)
(2.9 -6.22644e-14 0)
(2.9 -2.20095e-14 0)
(2.9 -2.11014e-14 0)
(2.9 2.04607e-14 0)
(2.9 -3.8147e-15 0)
(2.9 -3.75992e-15 0)
(2.9 -2.45237e-15 0)
(2.9 -1.95113e-14 0)
(2.9 2.04992e-14 0)
(2.9 -3.13521e-15 0)
(2.9 -2.73661e-15 0)
(2.9 -5.62548e-14 0)
(2.9 -8.32851e-15 0)
(2.9 -5.8307e-14 0)
(2.9 -1.15895e-14 0)
(2.9 1.71497e-14 0)
(2.9 4.08793e-14 0)
(2.9 -2.02093e-14 0)
(2.9 -6.94287e-14 0)
(2.9 -6.70677e-14 0)
(2.9 -5.74053e-14 0)
(2.9 4.39387e-14 0)
(2.9 6.19699e-14 0)
(2.9 4.23509e-14 0)
(2.9 3.67745e-14 0)
(2.9 -4.68851e-14 0)
(2.9 -9.23399e-14 0)
(2.9 4.60107e-15 0)
(2.9 -1.64167e-14 0)
(2.9 3.81701e-14 0)
(2.9 7.81524e-14 0)
(2.9 8.54289e-15 0)
(2.9 -2.59981e-14 0)
(2.9 -5.10888e-15 0)
(2.9 2.90844e-14 0)
(2.9 -1.07086e-14 0)
(2.9 8.53151e-15 0)
(2.9 -2.07679e-14 0)
(2.9 1.69898e-15 0)
(2.9 6.66509e-14 0)
(2.9 3.67877e-14 0)
(2.9 4.7152e-14 0)
(2.9 9.77393e-14 0)
(2.9 -3.38214e-15 0)
(2.9 -1.66186e-14 0)
(2.9 1.44565e-14 0)
(2.9 -2.94373e-14 0)
(2.9 1.54621e-14 0)
(2.9 1.56311e-14 0)
(2.9 -5.03513e-14 0)
(2.9 1.80543e-14 0)
(2.9 -9.19217e-14 0)
(2.9 -4.36317e-14 0)
(2.9 -2.11461e-14 0)
(2.9 -9.19827e-16 0)
(2.9 -3.99499e-14 0)
(2.9 2.36922e-15 0)
(2.9 1.44742e-14 0)
(2.9 -7.58737e-14 0)
(2.9 -5.71099e-14 0)
(2.9 -3.90228e-14 0)
(2.9 1.13368e-14 0)
(2.9 -5.12568e-14 0)
(2.9 -5.40545e-15 0)
(2.9 -1.30146e-14 0)
(2.9 3.01407e-15 0)
(2.9 -2.69135e-14 0)
(2.9 4.57855e-16 0)
(2.9 5.83013e-14 0)
(2.9 3.8894e-14 0)
(2.9 1.56812e-14 0)
(2.9 1.50549e-14 0)
(2.9 -4.69484e-14 0)
(2.9 3.13893e-15 0)
(2.9 1.5764e-14 0)
(2.9 3.09071e-14 0)
(2.9 1.95504e-14 0)
(2.9 -4.24319e-14 0)
(2.9 -8.11013e-14 0)
(2.9 -3.32406e-14 0)
(2.9 -2.40512e-14 0)
(2.9 8.97077e-15 0)
(2.9 -1.59817e-14 0)
(2.9 -6.02557e-15 0)
(2.9 1.05287e-15 0)
(2.9 -4.26942e-14 0)
(2.9 -3.09936e-14 0)
(2.9 -3.15507e-14 0)
(2.9 -3.18914e-14 0)
(2.9 3.73656e-15 0)
(2.9 1.34927e-14 0)
(2.9 -1.27015e-14 0)
(2.9 -4.37951e-14 0)
(2.9 -2.099e-14 0)
(2.9 -1.73565e-14 0)
(2.9 -3.63733e-15 0)
(2.9 -2.16995e-14 0)
(2.9 2.57875e-14 0)
(2.9 2.2122e-14 0)
(2.9 2.31374e-14 0)
(2.9 6.19302e-15 0)
(2.9 1.19214e-14 0)
(2.9 1.52088e-14 0)
(2.9 -3.17443e-14 0)
(2.9 -1.391e-14 0)
(2.9 -2.02532e-14 0)
(2.9 1.08383e-14 0)
(2.9 -2.65643e-14 0)
(2.9 -1.88865e-14 0)
(2.9 2.7309e-14 0)
(2.9 2.59517e-14 0)
(2.9 -4.02127e-14 0)
(2.9 -2.87791e-14 0)
(2.9 -9.51183e-15 0)
(2.9 -2.79989e-14 0)
(2.9 1.91475e-14 0)
(2.9 2.77009e-15 0)
(2.9 -1.02822e-14 0)
(2.9 -2.71604e-14 0)
(2.9 -4.14999e-14 0)
(2.9 -4.34282e-14 0)
(2.9 2.52968e-15 0)
(2.9 -3.71239e-14 0)
(2.9 -7.03328e-15 0)
(2.9 -2.2947e-14 0)
(2.9 -4.43106e-15 0)
(2.9 -2.28331e-14 0)
(2.9 1.94932e-14 0)
(2.9 3.89142e-14 0)
(2.9 8.51068e-16 0)
(2.9 9.10216e-15 0)
(2.9 3.1858e-14 0)
(2.9 -2.1261e-14 0)
(2.9 5.17753e-14 0)
(2.9 5.00696e-14 0)
(2.9 -5.54499e-15 0)
(2.9 -1.13101e-14 0)
(2.9 -4.25778e-14 0)
(2.9 -1.6643e-14 0)
(2.9 2.58993e-14 0)
(2.9 2.877e-15 0)
(2.9 -9.01061e-15 0)
(2.9 1.5101e-15 0)
(2.9 9.54947e-15 0)
(2.9 2.71337e-14 0)
(2.9 -8.46985e-15 0)
(2.9 3.86602e-15 0)
(2.9 -2.12834e-14 0)
(2.9 2.12673e-14 0)
(2.9 2.62898e-14 0)
(2.9 2.14078e-14 0)
(2.9 2.542e-15 0)
(2.9 -2.10836e-14 0)
(2.9 1.19689e-15 0)
(2.9 -3.66336e-14 0)
(2.9 -2.23863e-14 0)
(2.9 -2.39558e-14 0)
(2.9 -3.98329e-16 0)
(2.9 -3.53314e-14 0)
(2.9 -2.48386e-14 0)
(2.9 -8.7884e-15 0)
(2.9 -3.82563e-14 0)
(2.9 -4.02736e-14 0)
(2.9 -3.19926e-14 0)
(2.9 -3.8274e-15 0)
(2.9 3.7885e-14 0)
(2.9 3.02535e-14 0)
(2.9 1.9625e-14 0)
(2.9 -5.59836e-15 0)
(2.9 2.95664e-14 0)
(2.9 2.25091e-14 0)
(2.9 1.18273e-14 0)
(2.9 2.49565e-14 0)
(2.9 -7.92766e-15 0)
(2.9 -6.79655e-14 0)
(2.9 2.18567e-14 0)
(2.9 -3.07543e-14 0)
(2.9 -3.40992e-15 0)
(2.9 -2.47267e-14 0)
(2.9 -6.05359e-14 0)
(2.9 -5.51202e-14 0)
(2.9 -2.5104e-14 0)
(2.9 -1.32641e-14 0)
(2.9 -2.5925e-14 0)
(2.9 -2.51992e-14 0)
(2.9 8.42827e-15 0)
(2.9 3.0631e-14 0)
(2.9 2.20344e-14 0)
(2.9 -3.5758e-14 0)
(2.9 -1.39609e-14 0)
(2.9 -7.09037e-15 0)
(2.9 2.611e-14 0)
(2.9 4.57767e-14 0)
(2.9 3.33517e-14 0)
(2.9 -1.10221e-14 0)
(2.9 -5.50212e-14 0)
(2.9 -4.74111e-14 0)
(2.9 1.68085e-14 0)
(2.9 1.05151e-14 0)
(2.9 5.2552e-14 0)
(2.9 4.08604e-15 0)
(2.9 -4.85571e-14 0)
(2.9 1.40753e-14 0)
(2.9 1.99112e-14 0)
(2.9 5.2946e-14 0)
(2.9 3.96061e-14 0)
(2.9 3.58834e-14 0)
(2.9 4.68597e-15 0)
(2.9 1.35828e-14 0)
(2.9 1.15259e-14 0)
(2.9 3.19935e-14 0)
(2.9 1.5477e-14 0)
(2.9 -1.00366e-14 0)
(2.9 -1.78894e-14 0)
(2.9 -2.49603e-14 0)
(2.9 -6.84555e-14 0)
(2.9 1.43456e-15 0)
(2.9 2.84265e-14 0)
(2.9 -4.09745e-14 0)
(2.9 -6.8432e-15 0)
(2.9 1.51122e-14 0)
(2.9 -2.37947e-14 0)
(2.9 2.98541e-16 0)
(2.9 3.98213e-14 0)
(2.9 -5.57805e-15 0)
(2.9 2.59961e-14 0)
(2.9 2.93163e-14 0)
(2.9 4.60849e-14 0)
(2.9 1.98436e-14 0)
(2.9 1.3377e-15 0)
(2.9 2.42696e-14 0)
(2.9 1.1068e-14 0)
(2.9 8.30755e-14 0)
(2.9 9.84043e-15 0)
(2.9 -3.50715e-14 0)
(2.9 -1.30989e-14 0)
(2.9 1.95623e-14 0)
(2.9 3.75409e-14 0)
(2.9 2.00997e-15 0)
(2.9 1.16784e-14 0)
(2.9 1.30224e-14 0)
(2.9 -1.22188e-14 0)
(2.9 -2.17104e-14 0)
(2.9 -5.2737e-14 0)
(2.9 1.57997e-14 0)
(2.9 2.89097e-14 0)
(2.9 1.94114e-14 0)
(2.9 1.04782e-14 0)
(2.9 -4.16276e-15 0)
(2.9 -3.38907e-14 0)
(2.9 1.14182e-14 0)
(2.9 3.02852e-14 0)
(2.9 1.47757e-14 0)
(2.9 -1.11511e-14 0)
(2.9 -3.71342e-14 0)
(2.9 -1.06352e-14 0)
(2.9 -1.57891e-14 0)
(2.9 8.8627e-15 0)
(2.9 1.26846e-14 0)
(2.9 3.51234e-14 0)
(2.9 4.27058e-15 0)
(2.9 9.31509e-15 0)
(2.9 -2.0574e-14 0)
(2.9 -1.23501e-14 0)
(2.9 2.96844e-14 0)
(2.9 2.42679e-14 0)
(2.9 7.97397e-15 0)
(2.9 -1.22385e-14 0)
(2.9 -6.02631e-14 0)
(2.9 -4.87014e-14 0)
(2.9 -3.89436e-14 0)
(2.9 -4.35785e-14 0)
(2.9 5.77985e-15 0)
(2.9 -4.42312e-14 0)
(2.9 -2.02603e-14 0)
(2.9 -6.75233e-14 0)
(2.9 -3.57629e-15 0)
(2.9 -7.36913e-15 0)
(2.9 2.59104e-14 0)
(2.9 -1.17284e-14 0)
(2.9 -1.85587e-14 0)
(2.9 2.34976e-15 0)
(2.9 -5.21554e-15 0)
(2.9 3.83482e-14 0)
(2.9 2.25307e-14 0)
(2.9 -2.4941e-14 0)
(2.9 -2.17549e-14 0)
(2.9 5.30601e-15 0)
(2.9 2.62118e-14 0)
(2.9 1.08106e-14 0)
(2.9 2.26973e-14 0)
(2.9 -1.9569e-14 0)
(2.9 -5.58339e-15 0)
(2.9 -2.22657e-14 0)
(2.9 7.40045e-15 0)
(2.9 -7.26408e-14 0)
(2.9 1.05744e-14 0)
(2.9 6.33801e-14 0)
(2.9 2.84067e-14 0)
(2.9 6.60455e-14 0)
(2.9 5.2076e-14 0)
(2.9 2.87406e-16 0)
(2.9 -1.25995e-14 0)
(2.9 -2.86799e-14 0)
(2.9 -1.33488e-14 0)
(2.9 -4.83716e-15 0)
(2.9 8.9885e-15 0)
(2.9 9.90434e-15 0)
(2.9 9.16828e-15 0)
(2.9 -4.94302e-14 0)
(2.9 2.92068e-14 0)
(2.9 -1.87351e-16 0)
(2.9 1.14769e-14 0)
(2.9 -4.06448e-14 0)
(2.9 -4.59811e-14 0)
(2.9 7.30917e-15 0)
(2.9 2.57957e-15 0)
(2.9 3.27151e-15 0)
(2.9 7.60113e-15 0)
(2.9 2.90734e-14 0)
(2.9 8.89384e-15 0)
(2.9 6.14306e-14 0)
(2.9 3.31045e-14 0)
(2.9 -3.91127e-14 0)
(2.9 1.89553e-14 0)
(2.9 1.70665e-15 0)
(2.9 -1.00295e-14 0)
(2.9 -1.23487e-14 0)
(2.9 -8.43532e-14 0)
(2.9 -8.12761e-14 0)
(2.9 -5.32196e-14 0)
(2.9 -5.14925e-14 0)
(2.9 -3.66414e-14 0)
(2.9 -6.66205e-14 0)
(2.9 1.86762e-14 0)
(2.9 4.22308e-14 0)
(2.9 3.78091e-14 0)
(2.9 1.72002e-14 0)
(2.9 7.04249e-15 0)
(2.9 -3.51149e-14 0)
(2.9 -2.20566e-14 0)
(2.9 -1.39589e-14 0)
(2.9 -2.22214e-15 0)
(2.9 1.5993e-14 0)
(2.9 -9.09338e-15 0)
(2.9 -3.03691e-14 0)
(2.9 -2.9871e-14 0)
(2.9 -3.2639e-14 0)
(2.9 -1.56658e-14 0)
(2.9 3.09277e-15 0)
(2.9 -3.70976e-15 0)
(2.9 -4.65911e-14 0)
(2.9 -1.90092e-14 0)
(2.9 3.14091e-15 0)
(2.9 6.39086e-14 0)
(2.9 -2.8447e-14 0)
(2.9 -2.13052e-14 0)
(2.9 -1.18309e-15 0)
(2.9 5.72399e-14 0)
(2.9 8.99398e-14 0)
(2.9 1.76102e-14 0)
(2.9 1.45519e-14 0)
(2.9 -4.88533e-15 0)
(2.9 -4.11147e-14 0)
(2.9 -5.31931e-14 0)
(2.9 -1.28761e-14 0)
(2.9 -4.44474e-14 0)
(2.9 -3.30428e-14 0)
(2.9 1.80015e-14 0)
(2.9 4.18244e-14 0)
(2.9 6.62264e-15 0)
(2.9 -2.58402e-14 0)
(2.9 -5.53441e-14 0)
(2.9 -1.38881e-14 0)
(2.9 1.74636e-14 0)
(2.9 3.52425e-14 0)
(2.9 1.30711e-14 0)
(2.9 1.23676e-14 0)
(2.9 -4.80571e-15 0)
(2.9 2.25851e-14 0)
(2.9 1.81786e-14 0)
(2.9 4.46221e-14 0)
(2.9 -2.41114e-15 0)
(2.9 -5.206e-15 0)
(2.9 2.44662e-14 0)
(2.9 3.17732e-14 0)
(2.9 9.84919e-15 0)
(2.9 -2.95876e-14 0)
(2.9 -3.37937e-14 0)
(2.9 -8.54264e-15 0)
(2.9 1.33219e-14 0)
(2.9 4.42797e-15 0)
(2.9 -4.60193e-14 0)
(2.9 4.05483e-15 0)
(2.9 2.9598e-14 0)
(2.9 8.22249e-14 0)
(2.9 7.3405e-14 0)
(2.9 1.11642e-14 0)
(2.9 -2.12825e-14 0)
(2.9 -4.96366e-15 0)
(2.9 8.93447e-15 0)
(2.9 8.23342e-15 0)
(2.9 -2.03776e-14 0)
(2.9 1.23978e-14 0)
(2.9 -1.10741e-14 0)
(2.9 -2.29471e-14 0)
(2.9 -1.26792e-14 0)
(2.9 -4.72835e-14 0)
(2.9 -2.0737e-14 0)
(2.9 -4.53313e-14 0)
(2.9 4.2035e-15 0)
(2.9 -5.47016e-15 0)
(2.9 -3.49583e-14 0)
(2.9 1.09776e-14 0)
(2.9 4.43374e-14 0)
(2.9 8.42998e-15 0)
(2.9 3.92009e-15 0)
(2.9 -3.25288e-14 0)
(2.9 2.00508e-14 0)
(2.9 2.4773e-14 0)
(2.9 -1.6876e-14 0)
(2.9 1.5051e-14 0)
(2.9 -2.57454e-15 0)
(2.9 -1.97091e-14 0)
(2.9 -5.35924e-14 0)
(2.9 -4.9016e-14 0)
(2.9 -4.50385e-14 0)
(2.9 -5.30922e-14 0)
(2.9 9.73579e-15 0)
(2.9 2.53275e-14 0)
(2.9 9.7275e-15 0)
(2.9 -1.11829e-14 0)
(2.9 -7.31804e-14 0)
(2.9 1.79827e-14 0)
(2.9 4.98969e-14 0)
(2.9 -9.8932e-15 0)
(2.9 -4.87014e-15 0)
(2.9 2.1508e-14 0)
(2.9 -1.42456e-15 0)
(2.9 2.51679e-14 0)
(2.9 6.79313e-15 0)
(2.9 5.3127e-14 0)
(2.9 -1.70649e-15 0)
(2.9 1.46111e-14 0)
(2.9 -6.43507e-15 0)
(2.9 4.20191e-14 0)
(2.9 -7.97009e-15 0)
(2.9 -5.35458e-14 0)
(2.9 1.59325e-14 0)
(2.9 4.88359e-14 0)
(2.9 2.9842e-14 0)
(2.9 4.71159e-14 0)
(2.9 1.00837e-14 0)
(2.9 1.9082e-14 0)
(2.9 5.48641e-14 0)
(2.9 5.27903e-14 0)
(2.9 4.68146e-14 0)
(2.9 4.14696e-14 0)
(2.9 1.06842e-14 0)
(2.9 -2.34231e-14 0)
(2.9 -3.70404e-15 0)
(2.9 1.60546e-14 0)
(2.9 -3.9179e-14 0)
(2.9 1.12494e-14 0)
(2.9 4.87484e-14 0)
(2.9 -1.8359e-14 0)
(2.9 -3.75989e-14 0)
(2.9 1.68643e-14 0)
(2.9 -2.44991e-14 0)
(2.9 -2.80959e-14 0)
(2.9 -2.02986e-15 0)
(2.9 -4.24772e-15 0)
(2.9 6.54211e-15 0)
(2.9 -4.61855e-14 0)
(2.9 -1.86832e-14 0)
(2.9 9.93885e-15 0)
(2.9 7.29591e-15 0)
(2.9 1.92864e-14 0)
(2.9 5.35376e-15 0)
(2.9 -1.06857e-14 0)
(2.9 -1.29557e-14 0)
(2.9 1.90617e-16 0)
(2.9 1.43563e-14 0)
(2.9 1.54323e-14 0)
(2.9 -1.82996e-14 0)
(2.9 -8.21202e-14 0)
(2.9 -2.08548e-14 0)
(2.9 -2.17963e-14 0)
(2.9 -2.85852e-16 0)
(2.9 2.07739e-14 0)
(2.9 2.93613e-14 0)
(2.9 3.71234e-15 0)
(2.9 -3.28776e-14 0)
(2.9 -1.2025e-14 0)
(2.9 4.22333e-16 0)
(2.9 -5.31539e-15 0)
(2.9 -6.43299e-15 0)
(2.9 8.16571e-15 0)
(2.9 1.00075e-14 0)
(2.9 7.27998e-15 0)
(2.9 -5.6365e-15 0)
(2.9 2.03649e-15 0)
(2.9 3.10689e-14 0)
(2.9 2.25091e-15 0)
(2.9 -3.99427e-14 0)
(2.9 4.28263e-14 0)
(2.9 -6.24567e-15 0)
(2.9 1.3767e-15 0)
(2.9 4.04907e-14 0)
(2.9 2.10775e-14 0)
(2.9 1.20298e-14 0)
(2.9 1.11756e-14 0)
(2.9 5.44823e-14 0)
(2.9 1.7186e-14 0)
(2.9 4.43517e-16 0)
(2.9 1.88353e-14 0)
(2.9 -4.31236e-15 0)
(2.9 5.45673e-15 0)
(2.9 4.42041e-14 0)
(2.9 -1.19167e-14 0)
(2.9 -2.20847e-14 0)
(2.9 1.61683e-14 0)
(2.9 2.68521e-14 0)
(2.9 -2.45239e-14 0)
(2.9 2.45665e-14 0)
(2.9 5.15993e-15 0)
(2.9 -4.56293e-14 0)
(2.9 5.14894e-14 0)
(2.9 -2.28942e-14 0)
(2.9 -8.33976e-15 0)
(2.9 -2.60401e-14 0)
(2.9 -7.04738e-15 0)
(2.9 2.19104e-14 0)
(2.9 -4.46064e-14 0)
(2.9 -3.31212e-14 0)
(2.9 3.89042e-14 0)
(2.9 -4.07467e-15 0)
(2.9 -1.58714e-14 0)
(2.9 -1.99075e-15 0)
(2.9 2.12034e-14 0)
(2.9 5.91489e-14 0)
(2.9 4.92381e-14 0)
(2.9 6.84243e-15 0)
(2.9 1.89817e-14 0)
(2.9 4.17981e-14 0)
(2.9 8.62464e-15 0)
(2.9 4.55605e-14 0)
(2.9 3.11017e-14 0)
(2.9 1.60104e-14 0)
(2.9 1.16482e-15 0)
(2.9 2.46804e-14 0)
(2.9 2.6381e-14 0)
(2.9 -9.16199e-15 0)
(2.9 -4.83614e-14 0)
(2.9 -1.46559e-14 0)
(2.9 3.1509e-15 0)
(2.9 3.69851e-14 0)
(2.9 -3.32376e-14 0)
(2.9 -1.24073e-14 0)
(2.9 -2.62254e-14 0)
(2.9 6.04347e-14 0)
(2.9 -2.25725e-14 0)
(2.9 1.10635e-14 0)
(2.9 -1.219e-14 0)
(2.9 -7.18524e-14 0)
(2.9 -1.84779e-14 0)
(2.9 -4.55861e-16 0)
(2.9 -3.19038e-15 0)
(2.9 1.97684e-14 0)
(2.9 1.09751e-14 0)
(2.9 -6.15178e-15 0)
(2.9 -7.51421e-15 0)
(2.9 -1.25456e-14 0)
(2.9 7.59237e-15 0)
(2.9 -3.06625e-14 0)
(2.9 -1.81488e-14 0)
(2.9 -1.90571e-14 0)
(2.9 -1.54876e-14 0)
(2.9 1.18627e-14 0)
(2.9 -4.45889e-14 0)
(2.9 -3.34996e-15 0)
(2.9 2.40774e-14 0)
(2.9 8.28516e-14 0)
(2.9 -3.17883e-14 0)
(2.9 -6.27371e-15 0)
(2.9 3.0084e-15 0)
(2.9 -3.76329e-14 0)
(2.9 1.28264e-14 0)
(2.9 4.34859e-15 0)
(2.9 -3.05881e-14 0)
(2.9 -4.8141e-14 0)
(2.9 4.63181e-14 0)
(2.9 2.37675e-14 0)
(2.9 -1.16452e-14 0)
(2.9 1.78537e-14 0)
(2.9 4.17883e-14 0)
(2.9 -6.55821e-15 0)
(2.9 -2.07079e-14 0)
(2.9 -2.14545e-14 0)
(2.9 8.22879e-15 0)
(2.9 3.76349e-14 0)
(2.9 3.02336e-14 0)
(2.9 -5.39178e-14 0)
(2.9 2.86828e-14 0)
(2.9 4.1899e-14 0)
(2.9 1.71056e-14 0)
(2.9 -9.4442e-15 0)
(2.9 1.15778e-15 0)
(2.9 2.71091e-14 0)
(2.9 -5.00165e-14 0)
(2.9 -5.18474e-14 0)
(2.9 1.55925e-15 0)
(2.9 2.97394e-14 0)
(2.9 -1.21642e-14 0)
(2.9 -1.69803e-14 0)
(2.9 -2.81083e-14 0)
(2.9 2.02522e-14 0)
(2.9 -3.67623e-14 0)
(2.9 1.5401e-14 0)
(2.9 -2.16314e-14 0)
(2.9 1.08357e-15 0)
(2.9 -3.27502e-14 0)
(2.9 -4.6406e-14 0)
(2.9 -2.03858e-14 0)
(2.9 -5.83433e-14 0)
(2.9 -5.04564e-14 0)
(2.9 -1.24129e-14 0)
(2.9 1.8031e-14 0)
(2.9 -3.00715e-14 0)
(2.9 -3.62802e-14 0)
(2.9 2.35401e-14 0)
(2.9 -1.15286e-14 0)
(2.9 -4.26444e-14 0)
(2.9 3.76408e-14 0)
(2.9 -2.08507e-14 0)
(2.9 -2.01673e-14 0)
(2.9 -1.83166e-14 0)
(2.9 1.2162e-14 0)
(2.9 -1.82174e-14 0)
(2.9 -9.07056e-15 0)
(2.9 -2.66733e-15 0)
(2.9 -3.60164e-14 0)
(2.9 -7.25735e-15 0)
(2.9 -3.90515e-14 0)
(2.9 -1.83784e-14 0)
(2.9 -1.91079e-14 0)
(2.9 -7.15545e-15 0)
(2.9 -1.96353e-14 0)
(2.9 -2.37122e-14 0)
(2.9 -3.69331e-14 0)
(2.9 -8.8247e-14 0)
(2.9 2.99014e-14 0)
(2.9 -6.42507e-15 0)
(2.9 3.37413e-14 0)
(2.9 2.16088e-14 0)
(2.9 -2.61106e-14 0)
(2.9 2.73856e-14 0)
(2.9 -6.7014e-15 0)
(2.9 2.0397e-14 0)
(2.9 -3.11688e-14 0)
(2.9 -3.96915e-15 0)
(2.9 -1.95491e-14 0)
(2.9 -1.41039e-14 0)
(2.9 1.28277e-14 0)
(2.9 -1.50483e-14 0)
(2.9 -2.61756e-14 0)
(2.9 -1.50571e-14 0)
(2.9 -2.38436e-14 0)
(2.9 -3.94967e-14 0)
(2.9 -1.33717e-14 0)
(2.9 -4.2336e-14 0)
(2.9 -2.78086e-14 0)
(2.9 3.62666e-14 0)
(2.9 -3.76035e-15 0)
(2.9 7.70109e-15 0)
(2.9 -2.68469e-15 0)
(2.9 -2.13186e-14 0)
(2.9 -4.83173e-14 0)
(2.9 2.80766e-14 0)
(2.9 7.45754e-16 0)
(2.9 -5.6127e-15 0)
(2.9 -2.77162e-14 0)
(2.9 1.61887e-14 0)
(2.9 -2.34718e-14 0)
(2.9 -1.5778e-14 0)
(2.9 -4.17198e-14 0)
(2.9 1.81019e-15 0)
(2.9 2.6561e-14 0)
(2.9 -1.17426e-15 0)
(2.9 -1.73867e-14 0)
(2.9 -4.40303e-15 0)
(2.9 -1.36549e-14 0)
(2.9 3.24336e-14 0)
(2.9 5.22882e-14 0)
(2.9 1.71535e-14 0)
(2.9 -1.34362e-14 0)
(2.9 -2.06189e-14 0)
(2.9 -1.11972e-14 0)
(2.9 6.57482e-15 0)
(2.9 1.0584e-14 0)
(2.9 -3.40441e-14 0)
(2.9 -2.87193e-14 0)
(2.9 -1.65324e-14 0)
(2.9 -2.48558e-14 0)
(2.9 -1.47173e-14 0)
(2.9 1.66885e-14 0)
(2.9 2.40717e-14 0)
(2.9 1.2661e-14 0)
(2.9 -1.80854e-14 0)
(2.9 -2.38334e-14 0)
(2.9 -6.0613e-16 0)
(2.9 1.19974e-14 0)
(2.9 -2.18975e-14 0)
(2.9 1.80946e-14 0)
(2.9 5.86609e-15 0)
(2.9 -9.25652e-15 0)
(2.9 2.62489e-14 0)
(2.9 -3.81471e-14 0)
(2.9 -1.55452e-14 0)
(2.9 1.96497e-15 0)
(2.9 -5.30299e-14 0)
(2.9 -2.15062e-14 0)
(2.9 8.5592e-15 0)
(2.9 1.21495e-14 0)
(2.9 -8.20092e-14 0)
(2.9 1.59029e-14 0)
(2.9 6.92907e-15 0)
(2.9 -4.70273e-14 0)
(2.9 -6.35682e-14 0)
(2.9 3.03201e-14 0)
(2.9 4.70579e-14 0)
(2.9 -3.57719e-14 0)
(2.9 2.65357e-14 0)
(2.9 2.61404e-14 0)
(2.9 3.83272e-14 0)
(2.9 1.55795e-14 0)
(2.9 -2.23739e-14 0)
(2.9 2.19102e-14 0)
(2.9 -1.223e-14 0)
(2.9 -3.42712e-14 0)
(2.9 -1.03564e-13 0)
(2.9 -5.06741e-14 0)
(2.9 3.40633e-14 0)
(2.9 -2.36701e-14 0)
(2.9 -6.7129e-15 0)
(2.9 -3.04617e-14 0)
(2.9 3.42402e-14 0)
(2.9 -4.80138e-15 0)
(2.9 4.87313e-14 0)
(2.9 1.29677e-14 0)
(2.9 -4.08568e-14 0)
(2.9 1.024e-14 0)
(2.9 4.48668e-14 0)
(2.9 5.46453e-14 0)
(2.9 1.3768e-14 0)
(2.9 7.58867e-15 0)
(2.9 -3.76358e-14 0)
(2.9 -1.07992e-14 0)
(2.9 6.02484e-14 0)
(2.9 5.69781e-14 0)
(2.9 -4.24312e-15 0)
(2.9 4.78064e-14 0)
(2.9 -1.85221e-14 0)
(2.9 -6.07931e-15 0)
(2.9 8.24315e-15 0)
(2.9 2.29044e-14 0)
(2.9 3.82627e-14 0)
(2.9 4.50939e-14 0)
(2.9 1.112e-14 0)
(2.9 2.55515e-14 0)
(2.9 5.84079e-14 0)
(2.9 3.12036e-14 0)
(2.9 2.68979e-14 0)
(2.9 -6.66702e-14 0)
(2.9 -3.69667e-14 0)
(2.9 -2.49762e-14 0)
(2.9 -4.41983e-15 0)
(2.9 -9.16586e-15 0)
(2.9 -3.00564e-14 0)
(2.9 2.24996e-14 0)
(2.9 -1.04778e-15 0)
(2.9 -8.71361e-16 0)
(2.9 6.67129e-14 0)
(2.9 4.39991e-14 0)
(2.9 -1.36452e-14 0)
(2.9 1.58382e-14 0)
(2.9 -2.6031e-14 0)
(2.9 -4.37565e-14 0)
(2.9 1.41645e-14 0)
(2.9 4.96063e-14 0)
(2.9 6.20154e-14 0)
(2.9 -5.40501e-16 0)
(2.9 4.05351e-14 0)
(2.9 4.02316e-14 0)
(2.9 3.72863e-14 0)
(2.9 -8.22905e-15 0)
(2.9 2.10694e-14 0)
(2.9 4.71717e-14 0)
(2.9 -1.6034e-14 0)
(2.9 -4.18237e-14 0)
(2.9 -7.41507e-14 0)
(2.9 -2.49101e-14 0)
(2.9 -1.28491e-14 0)
(2.9 -1.1721e-14 0)
(2.9 -3.17175e-14 0)
(2.9 -1.71299e-14 0)
(2.9 1.7795e-14 0)
(2.9 2.9742e-14 0)
(2.9 2.53857e-14 0)
(2.9 2.80266e-14 0)
(2.9 -4.65398e-14 0)
(2.9 -3.02796e-15 0)
(2.9 -3.86846e-15 0)
(2.9 1.22043e-15 0)
(2.9 3.62319e-14 0)
(2.9 2.03406e-14 0)
(2.9 -1.58032e-14 0)
(2.9 -1.0842e-14 0)
(2.9 -2.92633e-14 0)
(2.9 5.2139e-14 0)
(2.9 -5.32903e-15 0)
(2.9 2.64463e-14 0)
(2.9 -4.79993e-14 0)
(2.9 -3.19069e-14 0)
(2.9 6.57614e-15 0)
(2.9 6.48395e-15 0)
(2.9 3.44596e-14 0)
(2.9 1.07474e-14 0)
(2.9 7.97166e-15 0)
(2.9 3.98849e-14 0)
(2.9 5.27072e-14 0)
(2.9 -7.99744e-15 0)
(2.9 2.46686e-14 0)
(2.9 1.48245e-14 0)
(2.9 -5.09786e-14 0)
(2.9 -3.41351e-14 0)
(2.9 3.04416e-15 0)
(2.9 3.90976e-14 0)
(2.9 -1.20602e-15 0)
(2.9 -2.28492e-14 0)
(2.9 1.17808e-14 0)
(2.9 1.22994e-15 0)
(2.9 3.16441e-14 0)
(2.9 3.60688e-14 0)
(2.9 2.65583e-14 0)
(2.9 1.86123e-14 0)
(2.9 2.05464e-14 0)
(2.9 3.74475e-14 0)
(2.9 4.44338e-14 0)
(2.9 3.12128e-14 0)
(2.9 2.53204e-14 0)
(2.9 7.79174e-15 0)
(2.9 2.31254e-14 0)
(2.9 3.1773e-14 0)
(2.9 6.36997e-15 0)
(2.9 1.61923e-14 0)
(2.9 2.36773e-14 0)
(2.9 1.3741e-16 0)
(2.9 2.34925e-14 0)
(2.9 2.984e-14 0)
(2.9 1.30559e-14 0)
(2.9 2.74566e-14 0)
(2.9 -4.827e-16 0)
(2.9 5.44395e-14 0)
(2.9 1.06277e-14 0)
(2.9 1.62861e-14 0)
(2.9 9.95228e-15 0)
(2.9 5.69355e-14 0)
(2.9 9.32123e-16 0)
(2.9 -4.50122e-15 0)
(2.9 4.29355e-16 0)
(2.9 1.94093e-14 0)
(2.9 1.38128e-14 0)
(2.9 -2.93726e-14 0)
(2.9 3.23412e-14 0)
(2.9 -2.00935e-14 0)
(2.9 2.30353e-14 0)
(2.9 -5.52145e-14 0)
(2.9 -2.5243e-14 0)
(2.9 -4.60915e-15 0)
(2.9 -3.40305e-14 0)
(2.9 -1.5077e-14 0)
(2.9 -4.37554e-14 0)
(2.9 -7.36015e-15 0)
(2.9 -3.71071e-14 0)
(2.9 2.8214e-14 0)
(2.9 2.82281e-14 0)
(2.9 -5.1452e-14 0)
(2.9 9.00531e-15 0)
(2.9 5.36795e-14 0)
(2.9 3.18266e-14 0)
(2.9 -2.55513e-14 0)
(2.9 -9.96355e-15 0)
(2.9 5.80168e-14 0)
(2.9 -2.12705e-14 0)
(2.9 2.80206e-14 0)
(2.9 1.84515e-14 0)
(2.9 3.38339e-14 0)
(2.9 2.35635e-14 0)
(2.9 -1.31265e-14 0)
(2.9 -7.24457e-15 0)
(2.9 -2.1837e-14 0)
(2.9 -5.67902e-14 0)
(2.9 -7.1408e-15 0)
(2.9 7.3788e-14 0)
(2.9 1.21719e-14 0)
(2.9 6.92917e-14 0)
(2.9 1.08078e-13 0)
(2.9 1.39531e-14 0)
(2.9 -5.6392e-14 0)
(2.9 -1.2901e-14 0)
(2.9 7.24272e-14 0)
(2.9 1.18249e-14 0)
(2.9 -7.87413e-15 0)
(2.9 -3.54082e-14 0)
(2.9 3.13645e-14 0)
(2.9 1.38902e-15 0)
(2.9 -2.07982e-14 0)
(2.9 2.36855e-16 0)
(2.9 4.02126e-14 0)
(2.9 1.25807e-13 0)
(2.9 9.04522e-14 0)
(2.9 1.99344e-14 0)
(2.9 3.81682e-14 0)
(2.9 1.08096e-13 0)
(2.9 6.6141e-14 0)
(2.9 -2.23595e-14 0)
(2.9 4.23863e-14 0)
(2.9 -1.20257e-14 0)
(2.9 -3.21739e-14 0)
(2.9 5.55779e-14 0)
(2.9 3.32946e-15 0)
(2.9 -6.11937e-15 0)
(2.9 -7.06025e-14 0)
(2.9 7.33592e-15 0)
(2.9 -3.9494e-14 0)
(2.9 6.52735e-14 0)
(2.9 3.28828e-14 0)
(2.9 3.35471e-14 0)
(2.9 -5.03944e-14 0)
(2.9 -3.16526e-14 0)
(2.9 -1.09136e-14 0)
(2.9 5.06439e-14 0)
(2.9 6.88792e-14 0)
(2.9 -3.91212e-15 0)
(2.9 5.49451e-14 0)
(2.9 6.64643e-15 0)
(2.9 -6.40856e-14 0)
(2.9 6.98392e-15 0)
(2.9 2.22127e-14 0)
(2.9 2.23344e-14 0)
(2.9 1.09011e-14 0)
(2.9 -4.49697e-14 0)
(2.9 -1.75934e-14 0)
(2.9 -1.46232e-14 0)
(2.9 3.42893e-14 0)
(2.9 -5.06577e-14 0)
(2.9 4.80534e-15 0)
(2.9 1.2813e-14 0)
(2.9 1.72981e-14 0)
(2.9 2.02651e-14 0)
(2.9 3.55975e-14 0)
(2.9 -1.82254e-14 0)
(2.9 -1.12982e-14 0)
(2.9 2.03447e-14 0)
(2.9 8.96639e-15 0)
(2.9 2.66754e-14 0)
(2.9 4.24886e-14 0)
(2.9 4.35905e-15 0)
(2.9 -3.45029e-14 0)
(2.9 2.15187e-15 0)
(2.9 3.02036e-14 0)
(2.9 -1.57205e-14 0)
(2.9 -4.64478e-15 0)
(2.9 -2.10758e-14 0)
(2.9 -3.05629e-15 0)
(2.9 1.29923e-14 0)
(2.9 4.47282e-15 0)
(2.9 2.22579e-14 0)
(2.9 3.41992e-14 0)
(2.9 5.97119e-14 0)
(2.9 4.93088e-14 0)
(2.9 3.06065e-14 0)
(2.9 1.63772e-14 0)
(2.9 5.9997e-14 0)
(2.9 2.71631e-14 0)
(2.9 2.13189e-15 0)
(2.9 3.80881e-14 0)
(2.9 -1.35556e-14 0)
(2.9 -2.09849e-14 0)
(2.9 2.29408e-14 0)
(2.9 -1.0113e-14 0)
(2.9 -1.95012e-14 0)
(2.9 -1.40859e-14 0)
(2.9 -1.12125e-14 0)
(2.9 1.01152e-14 0)
(2.9 3.47557e-14 0)
(2.9 3.21276e-14 0)
(2.9 -3.26448e-15 0)
(2.9 5.13846e-16 0)
(2.9 -3.6739e-15 0)
(2.9 1.57562e-14 0)
(2.9 1.87364e-14 0)
(2.9 1.88624e-14 0)
(2.9 1.57039e-14 0)
(2.9 4.12008e-15 0)
(2.9 -1.54087e-14 0)
(2.9 -2.94082e-14 0)
(2.9 -2.0994e-14 0)
(2.9 -1.88013e-14 0)
(2.9 3.32493e-14 0)
(2.9 -2.77363e-14 0)
(2.9 -3.49953e-14 0)
(2.9 -4.24536e-14 0)
(2.9 2.40095e-14 0)
(2.9 -2.36709e-14 0)
(2.9 -7.9785e-14 0)
(2.9 -2.29622e-14 0)
(2.9 -1.91244e-14 0)
(2.9 1.82079e-14 0)
(2.9 2.59815e-14 0)
(2.9 4.1409e-14 0)
(2.9 -2.46544e-14 0)
(2.9 -4.67965e-14 0)
(2.9 -2.86886e-14 0)
(2.9 -2.21206e-14 0)
(2.9 -3.8537e-14 0)
(2.9 -2.39897e-14 0)
(2.9 -3.4245e-15 0)
(2.9 3.77709e-14 0)
(2.9 2.49339e-14 0)
(2.9 -1.46209e-15 0)
(2.9 6.31478e-14 0)
(2.9 2.59697e-14 0)
(2.9 -2.9312e-14 0)
(2.9 2.66123e-14 0)
(2.9 2.87803e-14 0)
(2.9 3.4843e-14 0)
(2.9 6.64574e-14 0)
(2.9 -2.97716e-15 0)
(2.9 -3.02328e-14 0)
(2.9 -1.59302e-14 0)
(2.9 3.56639e-15 0)
(2.9 4.15822e-14 0)
(2.9 1.14628e-14 0)
(2.9 2.51193e-15 0)
(2.9 1.11045e-14 0)
(2.9 4.18939e-14 0)
(2.9 1.19723e-14 0)
(2.9 3.12712e-15 0)
(2.9 -2.96776e-14 0)
(2.9 3.09184e-15 0)
(2.9 -1.29024e-15 0)
(2.9 8.61719e-15 0)
(2.9 -1.62335e-14 0)
(2.9 6.16525e-14 0)
(2.9 -2.09317e-14 0)
(2.9 -4.62424e-15 0)
(2.9 -1.70185e-14 0)
(2.9 1.34042e-14 0)
(2.9 2.38719e-14 0)
(2.9 -1.8767e-14 0)
(2.9 1.96574e-14 0)
(2.9 -1.99437e-14 0)
(2.9 3.5063e-14 0)
(2.9 3.50201e-14 0)
(2.9 3.04752e-14 0)
(2.9 5.27268e-14 0)
(2.9 4.94556e-14 0)
(2.9 -3.07767e-15 0)
(2.9 1.157e-14 0)
(2.9 -4.32625e-14 0)
(2.9 8.83179e-15 0)
(2.9 -1.28378e-14 0)
(2.9 -1.0369e-14 0)
(2.9 -3.66468e-14 0)
(2.9 -5.81858e-14 0)
(2.9 -2.4904e-14 0)
(2.9 -3.81876e-14 0)
(2.9 -4.7242e-15 0)
(2.9 -2.06821e-14 0)
(2.9 7.07459e-15 0)
(2.9 4.56215e-14 0)
(2.9 -2.21064e-14 0)
(2.9 1.42692e-14 0)
(2.9 2.65099e-14 0)
(2.9 -2.47838e-14 0)
(2.9 -4.59347e-14 0)
(2.9 -2.06452e-14 0)
(2.9 6.84583e-14 0)
(2.9 -1.92916e-14 0)
(2.9 -5.58356e-14 0)
(2.9 3.73556e-14 0)
(2.9 4.12973e-14 0)
(2.9 3.88868e-16 0)
(2.9 -1.54287e-14 0)
(2.9 2.10722e-15 0)
(2.9 -1.60298e-15 0)
(2.9 2.18807e-14 0)
(2.9 -2.62859e-15 0)
(2.9 -6.30267e-14 0)
(2.9 -2.31719e-14 0)
(2.9 3.90403e-15 0)
(2.9 1.51616e-14 0)
(2.9 4.72152e-14 0)
(2.9 6.52337e-15 0)
(2.9 -2.30329e-14 0)
(2.9 -2.2405e-14 0)
(2.9 3.51631e-15 0)
(2.9 -1.22601e-14 0)
(2.9 -3.78117e-14 0)
(2.9 2.27487e-14 0)
(2.9 5.23295e-14 0)
(2.9 3.20696e-14 0)
(2.9 -2.01137e-14 0)
(2.9 3.53374e-15 0)
(2.9 -2.0678e-14 0)
(2.9 1.22038e-15 0)
(2.9 -6.73465e-15 0)
(2.9 -2.2867e-14 0)
(2.9 4.29609e-14 0)
(2.9 1.42014e-14 0)
(2.9 6.46354e-14 0)
(2.9 3.87438e-14 0)
(2.9 2.39141e-14 0)
(2.9 6.62682e-14 0)
(2.9 1.47123e-15 0)
(2.9 6.38066e-14 0)
(2.9 1.1956e-13 0)
(2.9 1.07808e-13 0)
(2.9 3.66125e-14 0)
(2.9 -3.56572e-14 0)
(2.9 -1.28972e-14 0)
(2.9 -4.36209e-14 0)
(2.9 -5.06568e-14 0)
(2.9 1.70126e-15 0)
(2.9 4.17963e-15 0)
(2.9 -4.16238e-14 0)
(2.9 -2.82346e-15 0)
(2.9 2.09725e-15 0)
(2.9 -6.55668e-16 0)
(2.9 -2.01269e-14 0)
(2.9 2.99623e-14 0)
(2.9 2.07683e-14 0)
(2.9 2.42554e-14 0)
(2.9 3.62227e-14 0)
(2.9 -1.07835e-14 0)
(2.9 5.1179e-15 0)
(2.9 -7.83922e-15 0)
(2.9 9.3459e-15 0)
(2.9 2.44109e-15 0)
(2.9 -1.97863e-14 0)
(2.9 -1.49563e-14 0)
(2.9 3.21336e-14 0)
(2.9 2.42563e-14 0)
(2.9 -2.43098e-14 0)
(2.9 -7.19837e-15 0)
(2.9 -6.14109e-15 0)
(2.9 -1.03995e-14 0)
(2.9 -1.64213e-14 0)
(2.9 -4.91484e-14 0)
(2.9 -3.17495e-14 0)
(2.9 5.77618e-16 0)
(2.9 -1.72181e-15 0)
(2.9 8.07764e-15 0)
(2.9 1.72309e-14 0)
(2.9 -5.60229e-15 0)
(2.9 -5.04907e-14 0)
(2.9 1.04629e-14 0)
(2.9 2.12458e-14 0)
(2.9 2.86082e-14 0)
(2.9 1.20214e-14 0)
(2.9 1.17499e-14 0)
(2.9 -2.56425e-14 0)
(2.9 -3.62931e-14 0)
(2.9 -2.80008e-14 0)
(2.9 7.61563e-15 0)
(2.9 -6.84513e-15 0)
(2.9 -2.29945e-14 0)
(2.9 -1.65043e-14 0)
(2.9 2.46136e-14 0)
(2.9 -1.16731e-14 0)
(2.9 3.34348e-15 0)
(2.9 3.9123e-14 0)
(2.9 4.21991e-14 0)
(2.9 3.03768e-14 0)
(2.9 2.58487e-15 0)
(2.9 -1.32348e-14 0)
(2.9 1.47291e-14 0)
(2.9 2.1908e-14 0)
(2.9 1.3126e-14 0)
(2.9 1.2331e-14 0)
(2.9 1.39627e-14 0)
(2.9 -4.03747e-14 0)
(2.9 -9.44718e-15 0)
(2.9 2.42187e-14 0)
(2.9 1.56605e-14 0)
(2.9 -2.54706e-14 0)
(2.9 -9.63974e-16 0)
(2.9 -7.14599e-15 0)
(2.9 -6.08807e-15 0)
(2.9 -1.04968e-14 0)
(2.9 6.27032e-14 0)
(2.9 6.62481e-15 0)
(2.9 -9.52733e-16 0)
(2.9 9.67046e-15 0)
(2.9 -1.27431e-14 0)
(2.9 4.70841e-14 0)
(2.9 6.79838e-14 0)
(2.9 -2.61414e-14 0)
(2.9 -3.78284e-15 0)
(2.9 -1.0703e-14 0)
(2.9 -3.24302e-14 0)
(2.9 7.29188e-15 0)
(2.9 -1.12067e-14 0)
(2.9 -6.82932e-15 0)
(2.9 3.91561e-15 0)
(2.9 1.34584e-14 0)
(2.9 -4.92266e-14 0)
(2.9 -4.68294e-14 0)
(2.9 -2.65428e-15 0)
(2.9 -1.74359e-15 0)
(2.9 -3.64987e-14 0)
(2.9 -1.27456e-14 0)
(2.9 -1.84329e-14 0)
(2.9 -3.37003e-15 0)
(2.9 4.97622e-16 0)
(2.9 -3.86513e-14 0)
(2.9 1.27297e-14 0)
(2.9 5.91657e-14 0)
(2.9 3.98801e-14 0)
(2.9 7.52636e-15 0)
(2.9 1.72669e-15 0)
(2.9 -3.11564e-14 0)
(2.9 -2.90116e-14 0)
(2.9 5.99685e-15 0)
(2.9 2.72343e-15 0)
(2.9 5.7399e-15 0)
(2.9 -2.39725e-15 0)
(2.9 -1.28068e-14 0)
(2.9 -3.27702e-14 0)
(2.9 -4.84843e-14 0)
(2.9 -3.46252e-14 0)
(2.9 -9.69508e-15 0)
(2.9 2.79626e-15 0)
(2.9 -2.17533e-14 0)
(2.9 -9.48333e-15 0)
(2.9 -4.71613e-14 0)
(2.9 -4.66415e-14 0)
(2.9 -4.73389e-14 0)
(2.9 -5.69378e-14 0)
(2.9 6.08771e-14 0)
(2.9 5.52555e-14 0)
(2.9 7.73537e-15 0)
(2.9 1.73951e-14 0)
(2.9 2.75916e-14 0)
(2.9 4.6277e-14 0)
(2.9 -2.7093e-16 0)
(2.9 3.7164e-14 0)
(2.9 -2.98458e-14 0)
(2.9 -4.14179e-14 0)
(2.9 -4.14144e-14 0)
(2.9 2.632e-14 0)
(2.9 -7.97121e-15 0)
(2.9 -2.73528e-15 0)
(2.9 -4.64071e-14 0)
(2.9 -2.79308e-15 0)
(2.9 3.72461e-14 0)
(2.9 5.25932e-14 0)
(2.9 -3.11626e-14 0)
(2.9 -2.85327e-14 0)
(2.9 -2.88288e-14 0)
(2.9 1.72594e-14 0)
(2.9 2.23217e-14 0)
(2.9 2.65435e-14 0)
(2.9 -1.02389e-14 0)
(2.9 -2.05012e-14 0)
(2.9 -2.28005e-15 0)
(2.9 2.87094e-16 0)
(2.9 -2.96219e-14 0)
(2.9 -1.61689e-14 0)
(2.9 3.02994e-14 0)
(2.9 -5.76117e-14 0)
(2.9 1.98804e-14 0)
(2.9 -7.86114e-15 0)
(2.9 -1.81505e-14 0)
(2.9 -1.49498e-15 0)
(2.9 -4.85146e-15 0)
(2.9 4.11641e-14 0)
(2.9 5.35167e-14 0)
(2.9 1.17723e-14 0)
(2.9 3.64142e-14 0)
(2.9 1.50376e-14 0)
(2.9 -2.20301e-14 0)
(2.9 1.53824e-14 0)
(2.9 4.49737e-15 0)
(2.9 -4.87411e-14 0)
(2.9 -8.86881e-15 0)
(2.9 -5.48938e-15 0)
(2.9 3.03694e-14 0)
(2.9 -6.2917e-15 0)
(2.9 1.16601e-14 0)
(2.9 1.29127e-14 0)
(2.9 -1.63573e-14 0)
(2.9 -3.08565e-14 0)
(2.9 -3.106e-14 0)
(2.9 3.82665e-15 0)
(2.9 -1.30386e-14 0)
(2.9 2.34027e-14 0)
(2.9 -1.82698e-14 0)
(2.9 -6.4184e-14 0)
(2.9 1.62423e-14 0)
(2.9 4.60358e-14 0)
(2.9 -1.44546e-14 0)
(2.9 1.56714e-14 0)
(2.9 1.91729e-14 0)
(2.9 2.79744e-14 0)
(2.9 3.98562e-14 0)
(2.9 1.62198e-14 0)
(2.9 -3.46917e-14 0)
(2.9 -1.87691e-14 0)
(2.9 -3.12094e-14 0)
(2.9 -8.25834e-15 0)
(2.9 -2.96382e-14 0)
(2.9 -2.01224e-15 0)
(2.9 -1.91748e-14 0)
(2.9 -1.3275e-14 0)
(2.9 -3.03882e-14 0)
(2.9 -1.64004e-14 0)
(2.9 -2.57833e-14 0)
(2.9 3.01342e-15 0)
(2.9 -4.32217e-14 0)
(2.9 1.70235e-14 0)
(2.9 -4.91413e-15 0)
(2.9 3.73888e-14 0)
(2.9 1.55532e-14 0)
(2.9 -1.00492e-14 0)
(2.9 -5.05942e-14 0)
(2.9 -1.45792e-15 0)
(2.9 -2.15308e-14 0)
(2.9 9.81135e-16 0)
(2.9 2.16415e-14 0)
(2.9 1.37969e-14 0)
(2.9 6.09728e-15 0)
(2.9 -2.80364e-14 0)
(2.9 -9.05722e-15 0)
(2.9 -1.54121e-14 0)
(2.9 2.34301e-14 0)
(2.9 9.30875e-15 0)
(2.9 -4.4505e-15 0)
(2.9 1.15435e-14 0)
(2.9 1.38808e-14 0)
(2.9 -7.6466e-15 0)
(2.9 -2.49091e-14 0)
(2.9 1.37379e-14 0)
(2.9 1.78254e-14 0)
(2.9 -2.78859e-14 0)
(2.9 -3.68837e-14 0)
(2.9 -4.24479e-14 0)
(2.9 6.02579e-14 0)