/*--------------------------------*- C++ -*----------------------------------*\
| =========                 |                                                 |
| \\      /  F ield         | OpenFOAM: The Open Source CFD Toolbox           |
|  \\    /   O peration     | Version:  2412                                  |
|   \\  /    A nd           | Website:  www.openfoam.com                      |
|    \\/     M anipulation  |                                                 |
\*---------------------------------------------------------------------------*/
FoamFile
{
    version     2.0;
    format      ascii;
    arch        "LSB;label=32;scalar=64";
    class       volVectorField;
    location    "0.0365584";
    object      U;
}
// * * * * * * * * * * * * * * * * * * * * * * * * * * * * * * * * * * * * * //

dimensions      [0 1 -1 0 0 0 0];

internalField   nonuniform List<vector> 
100
(
(1.78471 0 0)
(5.54978 0 0)
(9.09537 0 0)
(12.9038 0 0)
(16.3446 0 0)
(20.2672 0 0)
(23.5953 0 0)
(27.6043 0 0)
(30.8892 0 0)
(34.8107 0 0)
(38.2912 0 0)
(42.0112 0 0)
(45.7548 0 0)
(49.295 0 0)
(53.1694 0 0)
(56.5204 0 0)
(60.4756 0 0)
(63.8362 0 0)
(67.7518 0 0)
(71.1871 0 0)
(75.0179 0 0)
(78.5259 0 0)
(82.269 0 0)
(85.8321 0 0)
(89.5226 0 0)
(93.1262 0 0)
(96.7962 0 0)
(100.425 0 0)
(104.082 0 0)
(107.702 0 0)
(111.325 0 0)
(114.887 0 0)
(118.429 0 0)
(121.913 0 0)
(125.704 0 0)
(129.396 0 0)
(99.2355 0 0)
(-87.6839 0 0)
(-147.67 0 0)
(-143.342 0 0)
(-132.284 0 0)
(-130.886 0 0)
(-136.2 0 0)
(-136.876 0 0)
(-134.598 0 0)
(-128.63 0 0)
(-121.048 0 0)
(-116.854 0 0)
(-115.953 0 0)
(-116.008 0 0)
(-117.032 0 0)
(-117.747 0 0)
(-117.055 0 0)
(-114.605 0 0)
(-108.131 0 0)
(-97.7943 0 0)
(-91.0148 0 0)
(-88.9632 0 0)
(-88.9723 0 0)
(-89.8627 0 0)
(-89.8397 0 0)
(-88.4244 0 0)
(-87.4929 0 0)
(-83.3067 0 0)
(-80.5126 0 0)
(-75.5705 0 0)
(-74.9536 0 0)
(-73.2243 0 0)
(-70.7059 0 0)
(-68.797 0 0)
(-60.5764 0 0)
(-58.7101 0 0)
(-54.7406 0 0)
(-56.2985 0 0)
(-55.817 0 0)
(-50.7026 0 0)
(-47.5566 0 0)
(-42.0702 0 0)
(-42.2311 0 0)
(-42.3611 0 0)
(-43.4653 0 0)
(-42.5122 0 0)
(-38.5084 0 0)
(-32.5009 0 0)
(-26.1836 0 0)
(-22.6681 0 0)
(-22.3479 0 0)
(-20.7528 0 0)
(-12.1877 0 0)
(-4.96772 0 0)
(3.94854 0 0)
(10.0515 0 0)
(11.6242 0 0)
(9.43761 0 0)
(2.45687 0 0)
(-1.61172 0 0)
(-0.75414 0 0)
(0.457854 0 0)
(1.88273 0 0)
(1.12702 0 0)
)
;

boundaryField
{
    sides
    {
        type            fixedValue;
        value           uniform (0 0 0);
    }
    empty
    {
        type            empty;
    }
}


// ************************************************************************* //
