/*--------------------------------*- C++ -*----------------------------------*\
| =========                 |                                                 |
| \\      /  F ield         | OpenFOAM: The Open Source CFD Toolbox           |
|  \\    /   O peration     | Version:  2412                                  |
|   \\  /    A nd           | Website:  www.openfoam.com                      |
|    \\/     M anipulation  |                                                 |
\*---------------------------------------------------------------------------*/
FoamFile
{
    version     2.0;
    format      ascii;
    arch        "LSB;label=32;scalar=64";
    class       volVectorField;
    location    "0.0408549";
    object      U;
}
// * * * * * * * * * * * * * * * * * * * * * * * * * * * * * * * * * * * * * //

dimensions      [0 1 -1 0 0 0 0];

internalField   nonuniform List<vector> 
100
(
(1.54214 0 0)
(4.79645 0 0)
(8.04021 0 0)
(11.3027 0 0)
(14.5753 0 0)
(17.8498 0 0)
(21.1102 0 0)
(24.3374 0 0)
(27.5277 0 0)
(30.694 0 0)
(33.8383 0 0)
(36.9608 0 0)
(40.071 0 0)
(43.1587 0 0)
(46.2523 0 0)
(49.3871 0 0)
(52.5715 0 0)
(55.7896 0 0)
(59.2766 0 0)
(62.9931 0 0)
(55.9862 0 0)
(-105.197 0 0)
(-206.561 0 0)
(-211.267 0 0)
(-197.17 0 0)
(-185.967 0 0)
(-180.335 0 0)
(-177.16 0 0)
(-175.797 0 0)
(-177.875 0 0)
(-185.555 0 0)
(-187.769 0 0)
(-186.423 0 0)
(-184.449 0 0)
(-178.774 0 0)
(-164.305 0 0)
(-154.215 0 0)
(-150.672 0 0)
(-149.855 0 0)
(-152.184 0 0)
(-157.585 0 0)
(-159.07 0 0)
(-157.965 0 0)
(-156.169 0 0)
(-151.874 0 0)
(-145.588 0 0)
(-141.799 0 0)
(-140.9 0 0)
(-141.68 0 0)
(-141.464 0 0)
(-139.104 0 0)
(-133.206 0 0)
(-126.367 0 0)
(-123.421 0 0)
(-123.381 0 0)
(-125.11 0 0)
(-125.16 0 0)
(-122.679 0 0)
(-116.498 0 0)
(-109.493 0 0)
(-106.114 0 0)
(-106.5 0 0)
(-110.945 0 0)
(-114.121 0 0)
(-113.833 0 0)
(-108.671 0 0)
(-99.8503 0 0)
(-89.6799 0 0)
(-85.7261 0 0)
(-83.9 0 0)
(-85.2882 0 0)
(-87.9369 0 0)
(-86.9358 0 0)
(-88.1083 0 0)
(-83.4666 0 0)
(-81.107 0 0)
(-78.0276 0 0)
(-76.2515 0 0)
(-74.0428 0 0)
(-68.9836 0 0)
(-66.2217 0 0)
(-63.5664 0 0)
(-63.5139 0 0)
(-62.2279 0 0)
(-59.9262 0 0)
(-56.6796 0 0)
(-51.5195 0 0)
(-48.8545 0 0)
(-51.9028 0 0)
(-59.0146 0 0)
(-64.8282 0 0)
(-66.5509 0 0)
(-62.3313 0 0)
(-51.093 0 0)
(-35.2399 0 0)
(-20.5117 0 0)
(-10.2287 0 0)
(-5.37927 0 0)
(-0.686015 0 0)
(-1.67222 0 0)
)
;

boundaryField
{
    sides
    {
        type            fixedValue;
        value           uniform (0 0 0);
    }
    empty
    {
        type            empty;
    }
}


// ************************************************************************* //
