/*--------------------------------*- C++ -*----------------------------------*\
| =========                 |                                                 |
| \\      /  F ield         | OpenFOAM: The Open Source CFD Toolbox           |
|  \\    /   O peration     | Version:  2412                                  |
|   \\  /    A nd           | Website:  www.openfoam.com                      |
|    \\/     M anipulation  |                                                 |
\*---------------------------------------------------------------------------*/
FoamFile
{
    version     2.0;
    format      ascii;
    arch        "LSB;label=32;scalar=64";
    class       surfaceScalarField;
    location    "0.0246643";
    object      phiRhoY_Y_N2;
}
// * * * * * * * * * * * * * * * * * * * * * * * * * * * * * * * * * * * * * //

dimensions      [1 0 -1 0 0 0 0];

internalField   nonuniform List<scalar> 
99
(
11.5765
23.1586
34.7426
46.3141
57.8346
69.3036
80.7689
92.2355
103.718
115.18
126.606
138.01
149.376
160.725
172.009
183.295
194.598
205.808
216.962
228.019
239.039
250.004
261.035
272.252
283.525
294.732
305.635
316.022
325.833
335.212
344.416
353.74
363.668
374.845
387.76
401.346
412.102
419.994
429.686
457.018
518.876
540.968
542.01
542.449
542.535
540.515
529.304
519.512
517.354
515.772
515.574
517.177
521.303
523.281
524.014
523.52
519.455
519.205
526.221
527.443
515.801
509.654
524.462
543.723
532.761
494.679
494.868
538.426
331.461
89.9258
18.6394
12.8109
38.4245
60.4925
53.0235
19.7007
-19.0772
-39.2178
-45.1095
-44.7699
-24.3294
1.56159
21.3572
24.7639
25.5367
17.9509
-0.678
-19.7012
-8.63756
-2.09814
3.17623
1.12237
0.227236
0.0285177
-0.00199468
-0.000507426
-3.23904e-05
-6.95796e-07
0
)
;

boundaryField
{
    sides
    {
        type            calculated;
        value           uniform 0;
    }
    empty
    {
        type            empty;
    }
}


// ************************************************************************* //
