/*--------------------------------*- C++ -*----------------------------------*\
| =========                 |                                                 |
| \\      /  F ield         | OpenFOAM: The Open Source CFD Toolbox           |
|  \\    /   O peration     | Version:  2412                                  |
|   \\  /    A nd           | Website:  www.openfoam.com                      |
|    \\/     M anipulation  |                                                 |
\*---------------------------------------------------------------------------*/
FoamFile
{
    version     2.0;
    format      ascii;
    arch        "LSB;label=32;scalar=64";
    class       volScalarField;
    location    "0.0246643";
    object      rho;
}
// * * * * * * * * * * * * * * * * * * * * * * * * * * * * * * * * * * * * * //

dimensions      [1 -3 0 0 0 0 0];

internalField   nonuniform List<scalar> 
100
(
0.487581
0.487608
0.487713
0.487788
0.487865
0.487891
0.487776
0.487617
0.48733
0.487119
0.486784
0.486531
0.486212
0.485767
0.485595
0.484939
0.484794
0.484051
0.483685
0.483171
0.482513
0.482022
0.481205
0.480836
0.480061
0.479745
0.478922
0.478251
0.477019
0.47569
0.474025
0.472404
0.470832
0.469728
0.469336
0.469785
0.470003
0.468672
0.466204
0.466102
0.478772
0.498662
0.497502
0.491931
0.487511
0.48235
0.474364
0.464688
0.460437
0.457967
0.456501
0.457234
0.459217
0.460288
0.461486
0.46282
0.460922
0.457207
0.459694
0.46723
0.464487
0.449357
0.448342
0.474079
0.485025
0.455188
0.426563
0.44961
0.621011
0.977736
1.06572
1.01993
0.983398
1.03314
1.05073
1.05969
1.09807
1.08725
1.09605
1.08765
1.07953
1.08329
1.06366
1.05164
1.03569
1.02816
1.06543
1.12382
1.13698
1.08179
0.978392
0.906037
0.875786
0.873995
0.890825
0.903923
0.903624
0.89329
0.878696
0.866388
)
;

boundaryField
{
    sides
    {
        type            calculated;
        value           nonuniform List<scalar> 2(0.866388 0.487581);
    }
    empty
    {
        type            empty;
    }
}


// ************************************************************************* //
