/*--------------------------------*- C++ -*----------------------------------*\
| =========                 |                                                 |
| \\      /  F ield         | OpenFOAM: The Open Source CFD Toolbox           |
|  \\    /   O peration     | Version:  2412                                  |
|   \\  /    A nd           | Website:  www.openfoam.com                      |
|    \\/     M anipulation  |                                                 |
\*---------------------------------------------------------------------------*/
FoamFile
{
    version     2.0;
    format      ascii;
    arch        "LSB;label=32;scalar=64";
    class       volScalarField;
    location    "0.00925379";
    object      p;
}
// * * * * * * * * * * * * * * * * * * * * * * * * * * * * * * * * * * * * * //

dimensions      [1 -1 -2 0 0 0 0];

internalField   nonuniform List<scalar> 
100
(
100000
100000
100000
100000
100000
100000
100000
100000
100000
100000
100000
100000
100000
100000
100000
100000
100000
99998.5
99907.3
98760.9
95005.1
90001.8
85666.2
82189.5
79206
76459.5
73836.2
71303.6
68832.8
66463.6
64083.2
61949.8
59512.7
57871.1
55061.5
54204.2
50934.9
50520.7
47585.8
46777.1
44450.3
43368.1
41475.2
40160.5
38536.6
37090.3
35971
34805.7
33593
32093.9
31335.7
31705.7
32295
32073.4
31131.8
31176.8
32412.3
32729.1
32024.6
30997
31144.8
32184.9
32496.9
32109.9
31117
31278.3
31747.9
32552.5
32464.2
32342
31504.2
31399.8
31620.1
31900.8
31805.9
31601.8
31979
32248.5
32254.1
31870.3
31751.2
31763.5
31891.3
32206.1
32276.3
32206.4
31791.7
31429
31373.2
31376.9
31460.4
32056.8
33816.9
33667.6
24685.9
11196.5
10002
10000
10000
10000
)
;

boundaryField
{
    sides
    {
        type            zeroGradient;
    }
    empty
    {
        type            empty;
    }
}


// ************************************************************************* //
