/*--------------------------------*- C++ -*----------------------------------*\
| =========                 |                                                 |
| \\      /  F ield         | OpenFOAM: The Open Source CFD Toolbox           |
|  \\    /   O peration     | Version:  2412                                  |
|   \\  /    A nd           | Website:  www.openfoam.com                      |
|    \\/     M anipulation  |                                                 |
\*---------------------------------------------------------------------------*/
FoamFile
{
    version     2.0;
    format      ascii;
    arch        "LSB;label=32;scalar=64";
    class       surfaceScalarField;
    location    "0.0240732";
    object      phiRhoY_Y_N2;
}
// * * * * * * * * * * * * * * * * * * * * * * * * * * * * * * * * * * * * * //

dimensions      [1 0 -1 0 0 0 0];

internalField   nonuniform List<scalar> 
99
(
12.3713
24.7397
37.1109
49.4804
61.8281
74.1126
86.3355
98.5259
110.724
122.928
135.122
147.282
159.403
171.54
183.611
195.603
207.523
219.399
231.271
243.084
255.013
267.045
279.055
290.818
302.119
312.852
323.15
333.267
343.527
354.36
366.174
379.514
393.754
406.399
416.911
429.975
460.298
518.017
539.519
539.652
539.372
538.838
535.951
525.759
515.55
514.631
515.695
517.305
519.58
522.226
522.974
522.631
522.012
522.325
521.798
519.96
520.791
525.655
525.831
514.473
513.441
531.37
540.453
519.901
494.899
503.694
556.231
559.766
498.559
291.483
31.1881
68.6091
81.7235
72.9046
62.3561
48.0177
22.7971
-7.41964
-32.5809
-27.6486
-23.8346
-39.2742
-39.9961
-15.8104
16.5132
40.6835
52.3541
44.4143
1.51105
-11.1011
-5.62569
-0.479042
0.177126
0.0467898
0.00526289
-6.4466e-05
-5.20211e-05
-2.74902e-06
-2.53168e-08
)
;

boundaryField
{
    sides
    {
        type            calculated;
        value           uniform 0;
    }
    empty
    {
        type            empty;
    }
}


// ************************************************************************* //
