/*--------------------------------*- C++ -*----------------------------------*\
| =========                 |                                                 |
| \\      /  F ield         | OpenFOAM: The Open Source CFD Toolbox           |
|  \\    /   O peration     | Version:  2412                                  |
|   \\  /    A nd           | Website:  www.openfoam.com                      |
|    \\/     M anipulation  |                                                 |
\*---------------------------------------------------------------------------*/
FoamFile
{
    version     2.0;
    format      ascii;
    arch        "LSB;label=32;scalar=64";
    class       volScalarField;
    location    "0.0172765";
    object      p;
}
// * * * * * * * * * * * * * * * * * * * * * * * * * * * * * * * * * * * * * //

dimensions      [1 -1 -2 0 0 0 0];

internalField   nonuniform List<scalar> 
100
(
68228.1
68538.7
68661.8
69334.7
70329
71417.9
72070.7
72111.4
71428.4
70036.1
68442
66944.7
65603.3
64355.3
63126.2
61913.9
60686.9
59534.5
58299.8
57286.7
55958.5
55201.4
53648.9
53230.9
51422.7
51244.1
49391.6
49212.1
47535.8
47218.7
45776.1
45270.8
44067.5
43413.9
42373.2
41622.2
40709.6
39930.3
39084.4
38292.5
37495.9
36753.3
36012.3
35278.9
34548.8
33934.4
33299.2
32628.1
32157.2
31861.3
31645.9
31688.8
31683
31620.6
31794.8
32144.8
32117.9
31289
31158.9
32067.4
32692.5
32185.2
30768.6
30818.5
32425.6
33026.9
32250.8
30688.5
30793.5
32308.8
33071.7
32576.3
30771
30942.9
31818.8
32957.4
32869.9
31822.9
30903.8
31355.4
32307.2
32992.2
33489.3
35533.6
75651.7
103832
90633.5
84694.8
88069.8
91164.9
93135.8
94926.3
92906.6
95853.4
94181.9
96768.4
93618.4
94687.1
90351.9
90065
)
;

boundaryField
{
    sides
    {
        type            zeroGradient;
    }
    empty
    {
        type            empty;
    }
}


// ************************************************************************* //
