/*--------------------------------*- C++ -*----------------------------------*\
| =========                 |                                                 |
| \\      /  F ield         | OpenFOAM: The Open Source CFD Toolbox           |
|  \\    /   O peration     | Version:  2412                                  |
|   \\  /    A nd           | Website:  www.openfoam.com                      |
|    \\/     M anipulation  |                                                 |
\*---------------------------------------------------------------------------*/
FoamFile
{
    version     2.0;
    format      ascii;
    arch        "LSB;label=32;scalar=64";
    class       surfaceScalarField;
    location    "0.0172765";
    object      phiRhoY_Y_N2;
}
// * * * * * * * * * * * * * * * * * * * * * * * * * * * * * * * * * * * * * //

dimensions      [1 0 -1 0 0 0 0];

internalField   nonuniform List<scalar> 
99
(
28.2042
62.1725
100.431
144.429
193.425
239.073
276.888
304.727
318.455
325.657
333.075
342.684
353.643
364.461
374.553
384.01
393.036
401.696
409.991
417.914
425.405
432.613
439.373
445.937
452.166
457.973
463.665
468.844
473.784
478.479
482.937
487.028
490.851
494.61
498.092
501.177
503.937
506.718
509.434
511.692
513.309
514.859
516.888
518.62
519.224
519.914
521.424
521.556
520.8
521.325
523.497
525.219
524.624
516.729
512.762
521.376
537.543
536.086
502.079
496.21
524.583
559.177
547.543
486.736
481.462
524.189
572.711
558.346
482.234
472.634
510.506
569.273
570.505
503.794
470.635
489.64
559.092
574.888
541.577
475.994
467.253
498.562
561.346
391.518
92.5954
51.366
54.7004
21.2694
21.4205
19.241
7.78447
2.05689
0.411678
0.0750234
0.0100145
0.000795332
2.96934e-05
1.47865e-07
0
)
;

boundaryField
{
    sides
    {
        type            calculated;
        value           uniform 0;
    }
    empty
    {
        type            empty;
    }
}


// ************************************************************************* //
