/*--------------------------------*- C++ -*----------------------------------*\
| =========                 |                                                 |
| \\      /  F ield         | OpenFOAM: The Open Source CFD Toolbox           |
|  \\    /   O peration     | Version:  2412                                  |
|   \\  /    A nd           | Website:  www.openfoam.com                      |
|    \\/     M anipulation  |                                                 |
\*---------------------------------------------------------------------------*/
FoamFile
{
    version     2.0;
    format      ascii;
    arch        "LSB;label=32;scalar=64";
    class       volVectorField;
    location    "0.0172765";
    object      U;
}
// * * * * * * * * * * * * * * * * * * * * * * * * * * * * * * * * * * * * * //

dimensions      [0 1 -1 0 0 0 0];

internalField   nonuniform List<vector> 
100
(
(4.4313 0 0)
(13.0571 0 0)
(23.6056 0 0)
(34.9849 0 0)
(47.9126 0 0)
(61.2922 0 0)
(73.1512 0 0)
(82.7218 0 0)
(90.2334 0 0)
(95.1567 0 0)
(99.1318 0 0)
(103.338 0 0)
(108.036 0 0)
(113.01 0 0)
(118.003 0 0)
(122.96 0 0)
(127.846 0 0)
(132.797 0 0)
(137.606 0 0)
(142.645 0 0)
(147.277 0 0)
(152.457 0 0)
(156.887 0 0)
(162.167 0 0)
(166.652 0 0)
(171.733 0 0)
(176.574 0 0)
(181.25 0 0)
(186.321 0 0)
(190.829 0 0)
(195.981 0 0)
(200.434 0 0)
(205.602 0 0)
(210.198 0 0)
(215.286 0 0)
(219.958 0 0)
(225 0 0)
(229.837 0 0)
(234.806 0 0)
(239.621 0 0)
(244.478 0 0)
(249.385 0 0)
(254.289 0 0)
(259.009 0 0)
(263.486 0 0)
(268.308 0 0)
(272.923 0 0)
(276.52 0 0)
(280.294 0 0)
(283.386 0 0)
(284.6 0 0)
(284.756 0 0)
(283.067 0 0)
(281.698 0 0)
(282.549 0 0)
(285.608 0 0)
(286.194 0 0)
(279.74 0 0)
(277.724 0 0)
(284.146 0 0)
(289.601 0 0)
(287.302 0 0)
(276.253 0 0)
(274.333 0 0)
(286.651 0 0)
(292.053 0 0)
(287.451 0 0)
(274.352 0 0)
(273.179 0 0)
(284.737 0 0)
(292.02 0 0)
(289.322 0 0)
(275.287 0 0)
(274.771 0 0)
(279.206 0 0)
(289.772 0 0)
(289.509 0 0)
(281.516 0 0)
(274.097 0 0)
(275.427 0 0)
(282.947 0 0)
(289.168 0 0)
(291.282 0 0)
(224.15 0 0)
(59.6072 0 0)
(3.31685 0 0)
(23.6925 0 0)
(11.3499 0 0)
(0.0824807 0 0)
(10.2297 0 0)
(16.8581 0 0)
(19.2789 0 0)
(18.7714 0 0)
(20.491 0 0)
(23.565 0 0)
(25.2702 0 0)
(22.9232 0 0)
(16.4172 0 0)
(9.31548 0 0)
(0.69547 0 0)
)
;

boundaryField
{
    sides
    {
        type            fixedValue;
        value           uniform (0 0 0);
    }
    empty
    {
        type            empty;
    }
}


// ************************************************************************* //
