/*--------------------------------*- C++ -*----------------------------------*\
| =========                 |                                                 |
| \\      /  F ield         | OpenFOAM: The Open Source CFD Toolbox           |
|  \\    /   O peration     | Version:  2412                                  |
|   \\  /    A nd           | Website:  www.openfoam.com                      |
|    \\/     M anipulation  |                                                 |
\*---------------------------------------------------------------------------*/
FoamFile
{
    version     2.0;
    format      ascii;
    arch        "LSB;label=32;scalar=64";
    class       surfaceScalarField;
    location    "0.00460556";
    object      phiRhoY_Y_O2;
}
// * * * * * * * * * * * * * * * * * * * * * * * * * * * * * * * * * * * * * //

dimensions      [1 0 -1 0 0 0 0];

internalField   nonuniform List<scalar> 
99
(
0
0
0
0
0
0
0
0
0
0
0
0
0
0
0
0
0
0
0
0
0
0
0
0
0
0
0
0
0
0
0
0
0
0
0
0
0
0
0
0
0
0
0
0
0
0
0
0
0
0
0
0
0
0
0
0
0
0
19.1998
100.236
216.256
304.156
370.797
412.722
433.589
427.854
406.162
405.69
410.491
460.497
472.046
285.52
6.81666
0.00183559
8.0759e-08
8.21387e-12
8.52651e-14
-8.52651e-14
-1.13687e-13
-7.10543e-14
1.42109e-14
2.84217e-14
-8.52651e-14
-1.42109e-13
-1.42109e-13
-9.9476e-14
-4.26326e-14
-8.52651e-14
-1.27898e-13
-7.10543e-14
-1.27898e-13
-1.13687e-13
-1.7053e-13
-1.84741e-13
-1.84741e-13
-1.98952e-13
-7.10543e-14
-7.10543e-14
-2.84217e-14
)
;

boundaryField
{
    sides
    {
        type            calculated;
        value           uniform 0;
    }
    empty
    {
        type            empty;
    }
}


// ************************************************************************* //
