/*--------------------------------*- C++ -*----------------------------------*\
| =========                 |                                                 |
| \\      /  F ield         | OpenFOAM: The Open Source CFD Toolbox           |
|  \\    /   O peration     | Version:  2412                                  |
|   \\  /    A nd           | Website:  www.openfoam.com                      |
|    \\/     M anipulation  |                                                 |
\*---------------------------------------------------------------------------*/
FoamFile
{
    version     2.0;
    format      ascii;
    arch        "LSB;label=32;scalar=64";
    class       surfaceScalarField;
    location    "0.00579739";
    object      phiRhoY_Y_O2;
}
// * * * * * * * * * * * * * * * * * * * * * * * * * * * * * * * * * * * * * //

dimensions      [1 0 -1 0 0 0 0];

internalField   nonuniform List<scalar> 
99
(
0
0
0
0
0
0
0
0
0
0
0
0
0
0
0
0
0
0
0
0
0
0
0
0
0
0
0
0
0
0
0
0
0
0
0
0
0
0
0
0
0
0
0
0
0
0
0
0
0
0
0
0
0
0
0
0
0
0
0
0
0
18.015
93.548
204.045
299.016
358.744
381.67
401.819
413.415
425.793
438.799
439.98
431.597
415.7
415.816
452.397
454.386
193.144
1.95563
0.000304436
1.46516e-08
1.32161e-12
-1.13687e-13
-1.13687e-13
-5.68434e-14
-4.26326e-14
-4.26326e-14
-1.27898e-13
-1.98952e-13
-1.98952e-13
-1.7053e-13
-1.98952e-13
-9.9476e-14
-1.13687e-13
-2.27374e-13
-2.70006e-13
-2.70006e-13
-1.42109e-13
-4.26326e-14
)
;

boundaryField
{
    sides
    {
        type            calculated;
        value           uniform 0;
    }
    empty
    {
        type            empty;
    }
}


// ************************************************************************* //
