/*--------------------------------*- C++ -*----------------------------------*\
| =========                 |                                                 |
| \\      /  F ield         | OpenFOAM: The Open Source CFD Toolbox           |
|  \\    /   O peration     | Version:  2412                                  |
|   \\  /    A nd           | Website:  www.openfoam.com                      |
|    \\/     M anipulation  |                                                 |
\*---------------------------------------------------------------------------*/
FoamFile
{
    version     2.0;
    format      ascii;
    arch        "LSB;label=32;scalar=64";
    class       volScalarField;
    location    "0.0530895";
    object      p;
}
// * * * * * * * * * * * * * * * * * * * * * * * * * * * * * * * * * * * * * //

dimensions      [1 -1 -2 0 0 0 0];

internalField   nonuniform List<scalar> 
100
(
98636
94196.3
92366.2
89645.5
94741.4
98763.1
103545
100136
97483.5
92070.9
90447.3
91168.6
93250.1
91809.6
93597.5
97041.5
86001.2
53215
40128.8
40125.7
40045.6
39914.6
39757.5
40417.1
40543.5
42168.8
42633.2
43395.5
43164.6
42737
41913.2
42489.1
43297.4
48245.7
50823.5
51602.6
51871.3
52058.7
49405.1
44472.3
42205.6
42114.5
42438.7
42864.8
43207
43243.2
42893.6
42926.4
43284.2
43691.9
44160.8
44819.5
45565.1
46122.9
46573.6
46890.7
46495.3
45183.2
44238.8
43975
44097
44449.4
44886.8
45389.8
45960.4
46417.7
46695
46337.6
45887.1
45576.7
45562.5
45654
45744.7
45885.3
45690.9
45961.2
45555.7
46006.8
45521.6
46013.6
45700.4
45759.4
46073.5
45719.8
46330
45856.9
46328.1
45861.8
46071.3
45974.7
45852.3
46102.6
45868.5
46293.4
45969.4
46392.8
46014.9
46232.9
45926
45918.4
)
;

boundaryField
{
    sides
    {
        type            zeroGradient;
    }
    empty
    {
        type            empty;
    }
}


// ************************************************************************* //
