/*--------------------------------*- C++ -*----------------------------------*\
| =========                 |                                                 |
| \\      /  F ield         | OpenFOAM: The Open Source CFD Toolbox           |
|  \\    /   O peration     | Version:  2412                                  |
|   \\  /    A nd           | Website:  www.openfoam.com                      |
|    \\/     M anipulation  |                                                 |
\*---------------------------------------------------------------------------*/
FoamFile
{
    version     2.0;
    format      ascii;
    arch        "LSB;label=32;scalar=64";
    class       volScalarField;
    location    "0.010061";
    object      rho;
}
// * * * * * * * * * * * * * * * * * * * * * * * * * * * * * * * * * * * * * //

dimensions      [1 -3 0 0 0 0 0];

internalField   nonuniform List<scalar> 
100
(
1.12308
1.12308
1.12308
1.12308
1.12308
1.12308
1.12308
1.12308
1.12308
1.12308
1.12308
1.12308
1.12308
1.12308
1.12308
1.12292
1.11888
1.09667
1.05616
1.01607
0.983551
0.956512
0.932193
0.909114
0.886693
0.864755
0.843229
0.822149
0.80138
0.781177
0.761136
0.741922
0.72297
0.704147
0.687211
0.667913
0.652436
0.63593
0.618139
0.603575
0.588031
0.573152
0.556289
0.541382
0.527414
0.517688
0.50398
0.485005
0.469274
0.464824
0.4727
0.473069
0.452024
0.436398
0.449021
0.488602
0.492171
0.44951
0.425617
0.444513
0.493386
0.497331
0.455149
0.427465
0.438662
0.481932
0.495763
0.47149
0.428459
0.42031
0.44361
0.4981
0.527846
0.523479
0.494398
0.45603
0.426589
0.404256
0.386474
0.381561
0.380515
0.382123
0.382952
0.382505
0.379725
0.378604
0.378812
0.380546
0.383678
0.38432
0.383908
0.380034
0.376458
0.375548
0.375159
0.37761
0.397419
0.40499
0.317876
0.173126
)
;

boundaryField
{
    sides
    {
        type            calculated;
        value           nonuniform List<scalar> 2(0.173126 1.12308);
    }
    empty
    {
        type            empty;
    }
}


// ************************************************************************* //
