/*--------------------------------*- C++ -*----------------------------------*\
| =========                 |                                                 |
| \\      /  F ield         | OpenFOAM: The Open Source CFD Toolbox           |
|  \\    /   O peration     | Version:  2412                                  |
|   \\  /    A nd           | Website:  www.openfoam.com                      |
|    \\/     M anipulation  |                                                 |
\*---------------------------------------------------------------------------*/
FoamFile
{
    version     2.0;
    format      ascii;
    arch        "LSB;label=32;scalar=64";
    class       surfaceScalarField;
    location    "0.0447907";
    object      phiRhoY_Y_N2;
}
// * * * * * * * * * * * * * * * * * * * * * * * * * * * * * * * * * * * * * //

dimensions      [1 0 -1 0 0 0 0];

internalField   nonuniform List<scalar> 
99
(
2.32741
5.17183
8.46244
8.65366
-130.404
-496.075
-496.497
-460.513
-459.807
-493.028
-532.474
-533.589
-533.949
-532.124
-507.035
-437.214
-414.98
-414.112
-413.17
-426.248
-476.196
-494.445
-495.704
-495.664
-481.04
-452.363
-443.994
-443.443
-451.991
-468.115
-471.085
-469.348
-444.484
-422.15
-419.149
-420.64
-443.743
-455.549
-456.586
-445.79
-410.915
-395.665
-395.39
-406.262
-452.891
-469.481
-471.081
-461.707
-409.867
-368.689
-357.798
-356.751
-363.342
-390.956
-408.02
-410.845
-411.826
-403.46
-390.943
-386.885
-384.1
-374.711
-359.022
-353.762
-352.558
-358.342
-362.884
-363.224
-351.518
-330.282
-319.224
-318.168
-350.567
-406.218
-422.991
-423.992
-406.735
-354.396
-277.817
-226.368
-201.77
-190.619
-182.341
-165.819
-139.807
-103.548
-56.4728
-15.0491
-0.790117
-0.701053
0
-0.0222047
-0.0180135
-2.53379e-05
-2.06786e-05
0
0
0
0
)
;

boundaryField
{
    sides
    {
        type            calculated;
        value           uniform 0;
    }
    empty
    {
        type            empty;
    }
}


// ************************************************************************* //
