/*--------------------------------*- C++ -*----------------------------------*\
| =========                 |                                                 |
| \\      /  F ield         | OpenFOAM: The Open Source CFD Toolbox           |
|  \\    /   O peration     | Version:  2412                                  |
|   \\  /    A nd           | Website:  www.openfoam.com                      |
|    \\/     M anipulation  |                                                 |
\*---------------------------------------------------------------------------*/
FoamFile
{
    version     2.0;
    format      ascii;
    arch        "LSB;label=32;scalar=64";
    class       volScalarField;
    location    "0.0340667";
    object      rhoY_Y_N2;
}
// * * * * * * * * * * * * * * * * * * * * * * * * * * * * * * * * * * * * * //

dimensions      [1 -3 0 0 0 0 0];

internalField   nonuniform List<scalar> 
100
(
0.31055
0.310559
0.310563
0.310623
0.310588
0.310646
0.310588
0.310592
0.310578
0.310408
0.310424
0.310111
0.310132
0.309883
0.309807
0.309689
0.309497
0.309439
0.309173
0.309119
0.308845
0.308759
0.308499
0.308367
0.308103
0.307902
0.307632
0.307412
0.307185
0.306996
0.306799
0.306596
0.306378
0.306163
0.305967
0.305824
0.305696
0.305669
0.305648
0.305566
0.305698
0.30618
0.306992
0.307822
0.318513
0.552307
0.789135
0.795777
0.76464
1.0209
0.825648
0.829624
0.833209
0.84272
0.85352
0.860199
0.857212
0.856969
0.865229
0.875629
0.885374
0.897521
0.907865
0.919684
0.923921
0.913568
0.915185
0.918604
0.935297
0.942237
0.953058
0.966474
0.968852
0.986233
0.991071
0.995237
0.997279
1.00128
1.01179
1.01334
1.04632
1.08898
1.10935
1.11916
1.11454
1.10116
1.09339
1.15518
0.991136
0.622864
0.262642
0.0755624
0.0159381
0.00267965
0.000367319
3.77139e-05
2.70043e-06
9.76862e-08
-6.73026e-10
-1.43979e-10
)
;

boundaryField
{
    sides
    {
        type            calculated;
        value           nonuniform List<scalar> 2(0 1.12308);
    }
    empty
    {
        type            empty;
    }
}


// ************************************************************************* //
