/*--------------------------------*- C++ -*----------------------------------*\
| =========                 |                                                 |
| \\      /  F ield         | OpenFOAM: The Open Source CFD Toolbox           |
|  \\    /   O peration     | Version:  2412                                  |
|   \\  /    A nd           | Website:  www.openfoam.com                      |
|    \\/     M anipulation  |                                                 |
\*---------------------------------------------------------------------------*/
FoamFile
{
    version     2.0;
    format      ascii;
    arch        "LSB;label=32;scalar=64";
    class       volVectorField;
    location    "0.0025";
    object      U;
}
// * * * * * * * * * * * * * * * * * * * * * * * * * * * * * * * * * * * * * //

dimensions      [0 1 -1 0 0 0 0];

internalField   nonuniform List<vector> 
1800
(
(2.9 1.95024e-14 0)
(2.9 3.70567e-14 0)
(2.9 3.47885e-15 0)
(2.9 3.45272e-16 0)
(2.9 3.5206e-17 0)
(2.9 3.60119e-18 0)
(2.9 3.6571e-19 0)
(2.9 3.67494e-20 0)
(2.9 3.65362e-21 0)
(2.9 3.59779e-22 0)
(2.9 3.51416e-23 0)
(2.9 3.40967e-24 0)
(2.9 -1.26374e-14 0)
(2.9 -2.47861e-14 0)
(2.9 -3.77981e-14 0)
(2.9 -3.57142e-15 0)
(2.9 -3.55964e-16 0)
(2.9 -3.63766e-17 0)
(2.9 -3.72462e-18 0)
(2.9 -3.78377e-19 0)
(2.9 -3.80238e-20 0)
(2.9 -3.77995e-21 0)
(2.9 -3.72164e-22 0)
(2.9 -3.63457e-23 0)
(2.9 -3.52598e-24 0)
(2.9 -3.40235e-25 0)
(2.9 -3.26911e-26 0)
(2.9 -3.13057e-27 0)
(2.9 -2.99004e-28 0)
(2.9 -2.85e-29 0)
(2.9 -2.71223e-30 0)
(2.9 -2.57798e-31 0)
(2.9 -2.44809e-32 0)
(2.9 -2.32309e-33 0)
(2.9 -2.20327e-34 0)
(2.9 -2.08877e-35 0)
(2.9 -1.9796e-36 0)
(2.9 -1.8757e-37 0)
(2.9 -1.77693e-38 0)
(2.9 -1.68313e-39 0)
(2.9 -1.59413e-40 0)
(2.9 -1.50972e-41 0)
(2.9 -1.4297e-42 0)
(2.9 -1.35387e-43 0)
(2.9 -1.28202e-44 0)
(2.9 -1.21395e-45 0)
(2.9 -1.14948e-46 0)
(2.9 -1.08841e-47 0)
(2.9 -1.03059e-48 0)
(2.9 -9.75823e-50 0)
(2.9 -9.23965e-51 0)
(2.9 -8.7486e-52 0)
(2.9 -8.28362e-53 0)
(2.9 -7.84334e-54 0)
(2.9 -7.42645e-55 0)
(2.9 -7.03171e-56 0)
(2.9 -6.65795e-57 0)
(2.9 -6.30405e-58 0)
(2.9 -5.96896e-59 0)
(2.9 -6.24277e-60 0)
(2.9 1.74135e-14 0)
(2.9 2.1107e-14 0)
(2.9 4.34834e-15 0)
(2.9 7.01519e-16 0)
(2.9 1.01437e-16 0)
(2.9 1.37031e-17 0)
(2.9 1.76313e-18 0)
(2.9 2.18539e-19 0)
(2.9 2.62948e-20 0)
(2.9 3.08816e-21 0)
(2.9 3.55485e-22 0)
(2.9 4.02374e-23 0)
(2.9 -1.2058e-14 0)
(2.9 -2.50005e-14 0)
(2.9 -2.25887e-14 0)
(2.9 -4.5934e-15 0)
(2.9 -7.37866e-16 0)
(2.9 -1.06435e-16 0)
(2.9 -1.43532e-17 0)
(2.9 -1.84421e-18 0)
(2.9 -2.28327e-19 0)
(2.9 -2.7446e-20 0)
(2.9 -3.2207e-21 0)
(2.9 -3.70479e-22 0)
(2.9 -4.19088e-23 0)
(2.9 -4.67377e-24 0)
(2.9 -5.14904e-25 0)
(2.9 -5.61294e-26 0)
(2.9 -6.06237e-27 0)
(2.9 -6.4948e-28 0)
(2.9 -6.90816e-29 0)
(2.9 -7.30083e-30 0)
(2.9 -7.67156e-31 0)
(2.9 -8.01945e-32 0)
(2.9 -8.34384e-33 0)
(2.9 -8.64438e-34 0)
(2.9 -8.92087e-35 0)
(2.9 -9.17335e-36 0)
(2.9 -9.402e-37 0)
(2.9 -9.60711e-38 0)
(2.9 -9.78913e-39 0)
(2.9 -9.94859e-40 0)
(2.9 -1.00861e-40 0)
(2.9 -1.02023e-41 0)
(2.9 -1.0298e-42 0)
(2.9 -1.03739e-43 0)
(2.9 -1.04308e-44 0)
(2.9 -1.04696e-45 0)
(2.9 -1.04912e-46 0)
(2.9 -1.04963e-47 0)
(2.9 -1.04858e-48 0)
(2.9 -1.04607e-49 0)
(2.9 -1.04217e-50 0)
(2.9 -1.03697e-51 0)
(2.9 -1.03056e-52 0)
(2.9 -1.02301e-53 0)
(2.9 -1.01441e-54 0)
(2.9 -1.00483e-55 0)
(2.9 -9.94347e-57 0)
(2.9 -1.0907e-57 0)
(2.9 1.03382e-14 0)
(2.9 1.16683e-14 0)
(2.9 3.43618e-15 0)
(2.9 7.22057e-16 0)
(2.9 1.2822e-16 0)
(2.9 2.04992e-17 0)
(2.9 3.04506e-18 0)
(2.9 4.28107e-19 0)
(2.9 5.76508e-20 0)
(2.9 7.49853e-21 0)
(2.9 9.47779e-22 0)
(2.9 1.1695e-22 0)
(2.9 -7.59513e-15 0)
(2.9 -1.65012e-14 0)
(2.9 -1.31648e-14 0)
(2.9 -3.73302e-15 0)
(2.9 -7.7362e-16 0)
(2.9 -1.36376e-16 0)
(2.9 -2.17026e-17 0)
(2.9 -3.21338e-18 0)
(2.9 -4.50669e-19 0)
(2.9 -6.05731e-20 0)
(2.9 -7.86641e-21 0)
(2.9 -9.93001e-22 0)
(2.9 -1.22397e-22 0)
(2.9 -1.47836e-23 0)
(2.9 -1.75465e-24 0)
(2.9 -2.05115e-25 0)
(2.9 -2.36593e-26 0)
(2.9 -2.69701e-27 0)
(2.9 -3.04228e-28 0)
(2.9 -3.39961e-29 0)
(2.9 -3.76687e-30 0)
(2.9 -4.14194e-31 0)
(2.9 -4.52274e-32 0)
(2.9 -4.90727e-33 0)
(2.9 -5.29357e-34 0)
(2.9 -5.6798e-35 0)
(2.9 -6.0642e-36 0)
(2.9 -6.44511e-37 0)
(2.9 -6.821e-38 0)
(2.9 -7.19042e-39 0)
(2.9 -7.55206e-40 0)
(2.9 -7.90471e-41 0)
(2.9 -8.24728e-42 0)
(2.9 -8.57877e-43 0)
(2.9 -8.89831e-44 0)
(2.9 -9.20513e-45 0)
(2.9 -9.49856e-46 0)
(2.9 -9.77802e-47 0)
(2.9 -1.0043e-47 0)
(2.9 -1.02932e-48 0)
(2.9 -1.05283e-49 0)
(2.9 -1.0748e-50 0)
(2.9 -1.09522e-51 0)
(2.9 -1.11407e-52 0)
(2.9 -1.13137e-53 0)
(2.9 -1.14711e-54 0)
(2.9 -1.16131e-55 0)
(2.9 -1.30564e-56 0)
(2.9 5.3278e-15 0)
(2.9 6.22168e-15 0)
(2.9 2.29729e-15 0)
(2.9 5.8389e-16 0)
(2.9 1.21546e-16 0)
(2.9 2.22648e-17 0)
(2.9 3.72609e-18 0)
(2.9 5.82642e-19 0)
(2.9 8.63871e-20 0)
(2.9 1.227e-20 0)
(2.9 1.68203e-21 0)
(2.9 2.23806e-22 0)
(2.9 -4.13518e-15 0)
(2.9 -9.38438e-15 0)
(2.9 -7.39694e-15 0)
(2.9 -2.56815e-15 0)
(2.9 -6.37559e-16 0)
(2.9 -1.31095e-16 0)
(2.9 -2.38322e-17 0)
(2.9 -3.96773e-18 0)
(2.9 -6.18071e-19 0)
(2.9 -9.13732e-20 0)
(2.9 -1.29482e-20 0)
(2.9 -1.77165e-21 0)
(2.9 -2.35359e-22 0)
(2.9 -3.04888e-23 0)
(2.9 -3.8645e-24 0)
(2.9 -4.80611e-25 0)
(2.9 -5.87798e-26 0)
(2.9 -7.08306e-27 0)
(2.9 -8.42289e-28 0)
(2.9 -9.89774e-29 0)
(2.9 -1.15066e-29 0)
(2.9 -1.32473e-30 0)
(2.9 -1.51167e-31 0)
(2.9 -1.71103e-32 0)
(2.9 -1.9223e-33 0)
(2.9 -2.14488e-34 0)
(2.9 -2.37811e-35 0)
(2.9 -2.62123e-36 0)
(2.9 -2.87346e-37 0)
(2.9 -3.13398e-38 0)
(2.9 -3.4019e-39 0)
(2.9 -3.67635e-40 0)
(2.9 -3.9564e-41 0)
(2.9 -4.24114e-42 0)
(2.9 -4.52963e-43 0)
(2.9 -4.82095e-44 0)
(2.9 -5.11418e-45 0)
(2.9 -5.40842e-46 0)
(2.9 -5.70278e-47 0)
(2.9 -5.9964e-48 0)
(2.9 -6.28844e-49 0)
(2.9 -6.57808e-50 0)
(2.9 -6.86457e-51 0)
(2.9 -7.14715e-52 0)
(2.9 -7.42513e-53 0)
(2.9 -7.69783e-54 0)
(2.9 -7.96473e-55 0)
(2.9 -9.16905e-56 0)
(2.9 2.57876e-15 0)
(2.9 3.21067e-15 0)
(2.9 1.40024e-15 0)
(2.9 4.1362e-16 0)
(2.9 9.82038e-17 0)
(2.9 2.02029e-17 0)
(2.9 3.75087e-18 0)
(2.9 6.44304e-19 0)
(2.9 1.04102e-19 0)
(2.9 1.60053e-20 0)
(2.9 2.36159e-21 0)
(2.9 3.3657e-22 0)
(2.9 -2.08831e-15 0)
(2.9 -4.93948e-15 0)
(2.9 -4.01175e-15 0)
(2.9 -1.61078e-15 0)
(2.9 -4.60443e-16 0)
(2.9 -1.07447e-16 0)
(2.9 -2.18708e-17 0)
(2.9 -4.03139e-18 0)
(2.9 -6.88888e-19 0)
(2.9 -1.10865e-19 0)
(2.9 -1.69922e-20 0)
(2.9 -2.50089e-21 0)
(2.9 -3.55681e-22 0)
(2.9 -4.91223e-23 0)
(2.9 -6.61374e-24 0)
(2.9 -8.70854e-25 0)
(2.9 -1.12437e-25 0)
(2.9 -1.42654e-26 0)
(2.9 -1.78182e-27 0)
(2.9 -2.19448e-28 0)
(2.9 -2.6685e-29 0)
(2.9 -3.20756e-30 0)
(2.9 -3.81496e-31 0)
(2.9 -4.49363e-32 0)
(2.9 -5.24607e-33 0)
(2.9 -6.07434e-34 0)
(2.9 -6.98006e-35 0)
(2.9 -7.96436e-36 0)
(2.9 -9.02791e-37 0)
(2.9 -1.01709e-37 0)
(2.9 -1.13931e-38 0)
(2.9 -1.26938e-39 0)
(2.9 -1.40719e-40 0)
(2.9 -1.55257e-41 0)
(2.9 -1.70533e-42 0)
(2.9 -1.86523e-43 0)
(2.9 -2.03201e-44 0)
(2.9 -2.20535e-45 0)
(2.9 -2.38493e-46 0)
(2.9 -2.57038e-47 0)
(2.9 -2.76131e-48 0)
(2.9 -2.95731e-49 0)
(2.9 -3.15796e-50 0)
(2.9 -3.36281e-51 0)
(2.9 -3.57141e-52 0)
(2.9 -3.78327e-53 0)
(2.9 -3.99799e-54 0)
(2.9 -4.70964e-55 0)
(2.9 1.16462e-15 0)
(2.9 1.60669e-15 0)
(2.9 8.02493e-16 0)
(2.9 2.6877e-16 0)
(2.9 7.14431e-17 0)
(2.9 1.62724e-17 0)
(2.9 3.31372e-18 0)
(2.9 6.19495e-19 0)
(2.9 1.08224e-19 0)
(2.9 1.78908e-20 0)
(2.9 2.82476e-21 0)
(2.9 4.28992e-22 0)
(2.9 -1.00719e-15 0)
(2.9 -2.47846e-15 0)
(2.9 -2.10957e-15 0)
(2.9 -9.50242e-16 0)
(2.9 -3.05143e-16 0)
(2.9 -7.93222e-17 0)
(2.9 -1.7821e-17 0)
(2.9 -3.59565e-18 0)
(2.9 -6.67734e-19 0)
(2.9 -1.16065e-19 0)
(2.9 -1.91115e-20 0)
(2.9 -3.00794e-21 0)
(2.9 -4.5562e-22 0)
(2.9 -6.67776e-23 0)
(2.9 -9.51091e-24 0)
(2.9 -1.32099e-24 0)
(2.9 -1.7944e-25 0)
(2.9 -2.38964e-26 0)
(2.9 -3.12625e-27 0)
(2.9 -4.02487e-28 0)
(2.9 -5.107e-29 0)
(2.9 -6.39484e-30 0)
(2.9 -7.91106e-31 0)
(2.9 -9.67859e-32 0)
(2.9 -1.17204e-32 0)
(2.9 -1.40593e-33 0)
(2.9 -1.67176e-34 0)
(2.9 -1.97171e-35 0)
(2.9 -2.30789e-36 0)
(2.9 -2.68229e-37 0)
(2.9 -3.09679e-38 0)
(2.9 -3.55315e-39 0)
(2.9 -4.05297e-40 0)
(2.9 -4.59768e-41 0)
(2.9 -5.18856e-42 0)
(2.9 -5.82669e-43 0)
(2.9 -6.51297e-44 0)
(2.9 -7.24811e-45 0)
(2.9 -8.0326e-46 0)
(2.9 -8.86674e-47 0)
(2.9 -9.75062e-48 0)
(2.9 -1.06841e-48 0)
(2.9 -1.16669e-49 0)
(2.9 -1.26985e-50 0)
(2.9 -1.37781e-51 0)
(2.9 -1.49049e-52 0)
(2.9 -1.60781e-53 0)
(2.9 -1.93703e-54 0)
(2.9 4.81374e-16 0)
(2.9 7.81191e-16 0)
(2.9 4.39487e-16 0)
(2.9 1.64156e-16 0)
(2.9 4.82007e-17 0)
(2.9 1.20238e-17 0)
(2.9 2.66189e-18 0)
(2.9 5.37582e-19 0)
(2.9 1.00901e-19 0)
(2.9 1.78368e-20 0)
(2.9 2.99914e-21 0)
(2.9 4.83293e-22 0)
(2.9 -4.70893e-16 0)
(2.9 -1.20361e-15 0)
(2.9 -1.0806e-15 0)
(2.9 -5.36065e-16 0)
(2.9 -1.9016e-16 0)
(2.9 -5.43252e-17 0)
(2.9 -1.33251e-17 0)
(2.9 -2.91667e-18 0)
(2.9 -5.8425e-19 0)
(2.9 -1.08989e-19 0)
(2.9 -1.91744e-20 0)
(2.9 -3.21166e-21 0)
(2.9 -5.15909e-22 0)
(2.9 -7.99376e-23 0)
(2.9 -1.20025e-23 0)
(2.9 -1.75297e-24 0)
(2.9 -2.49814e-25 0)
(2.9 -3.48289e-26 0)
(2.9 -4.76106e-27 0)
(2.9 -6.39344e-28 0)
(2.9 -8.44775e-29 0)
(2.9 -1.09987e-29 0)
(2.9 -1.41277e-30 0)
(2.9 -1.79227e-31 0)
(2.9 -2.24781e-32 0)
(2.9 -2.7894e-33 0)
(2.9 -3.42756e-34 0)
(2.9 -4.17333e-35 0)
(2.9 -5.03814e-36 0)
(2.9 -6.03375e-37 0)
(2.9 -7.17224e-38 0)
(2.9 -8.46584e-39 0)
(2.9 -9.92691e-40 0)
(2.9 -1.15679e-40 0)
(2.9 -1.3401e-41 0)
(2.9 -1.54386e-42 0)
(2.9 -1.76926e-43 0)
(2.9 -2.01748e-44 0)
(2.9 -2.28964e-45 0)
(2.9 -2.58683e-46 0)
(2.9 -2.91008e-47 0)
(2.9 -3.26037e-48 0)
(2.9 -3.63861e-49 0)
(2.9 -4.04563e-50 0)
(2.9 -4.48219e-51 0)
(2.9 -4.94896e-52 0)
(2.9 -5.44666e-53 0)
(2.9 -6.70776e-54 0)
(2.9 2.0972e-16 0)
(2.9 3.72618e-16 0)
(2.9 2.3251e-16 0)
(2.9 9.5657e-17 0)
(2.9 3.07078e-17 0)
(2.9 8.31784e-18 0)
(2.9 1.98754e-18 0)
(2.9 4.30962e-19 0)
(2.9 8.64483e-20 0)
(2.9 1.62661e-20 0)
(2.9 2.90076e-21 0)
(2.9 4.94186e-22 0)
(2.9 -2.15276e-16 0)
(2.9 -5.70718e-16 0)
(2.9 -5.41401e-16 0)
(2.9 -2.9214e-16 0)
(2.9 -1.13094e-16 0)
(2.9 -3.51424e-17 0)
(2.9 -9.3302e-18 0)
(2.9 -2.19956e-18 0)
(2.9 -4.72339e-19 0)
(2.9 -9.40613e-20 0)
(2.9 -1.75986e-20 0)
(2.9 -3.12418e-21 0)
(2.9 -5.30275e-22 0)
(2.9 -8.65771e-23 0)
(2.9 -1.36635e-23 0)
(2.9 -2.09275e-24 0)
(2.9 -3.12114e-25 0)
(2.9 -4.54528e-26 0)
(2.9 -6.47874e-27 0)
(2.9 -9.05702e-28 0)
(2.9 -1.24396e-28 0)
(2.9 -1.6812e-29 0)
(2.9 -2.23871e-30 0)
(2.9 -2.94074e-31 0)
(2.9 -3.81459e-32 0)
(2.9 -4.89072e-33 0)
(2.9 -6.20283e-34 0)
(2.9 -7.78794e-35 0)
(2.9 -9.68636e-36 0)
(2.9 -1.19417e-36 0)
(2.9 -1.46009e-37 0)
(2.9 -1.77139e-38 0)
(2.9 -2.13339e-39 0)
(2.9 -2.55168e-40 0)
(2.9 -3.03215e-41 0)
(2.9 -3.58092e-42 0)
(2.9 -4.20435e-43 0)
(2.9 -4.909e-44 0)
(2.9 -5.70161e-45 0)
(2.9 -6.58906e-46 0)
(2.9 -7.57835e-47 0)
(2.9 -8.67656e-48 0)
(2.9 -9.89081e-49 0)
(2.9 -1.12282e-49 0)
(2.9 -1.26959e-50 0)
(2.9 -1.4301e-51 0)
(2.9 -1.60507e-52 0)
(2.9 -2.01973e-53 0)
(2.9 8.98421e-17 0)
(2.9 1.74865e-16 0)
(2.9 1.19682e-16 0)
(2.9 5.37109e-17 0)
(2.9 1.86965e-17 0)
(2.9 5.46087e-18 0)
(2.9 1.4e-18 0)
(2.9 3.24246e-19 0)
(2.9 6.91985e-20 0)
(2.9 1.38039e-20 0)
(2.9 2.60159e-21 0)
(2.9 4.67092e-22 0)
(2.9 -9.67631e-17 0)
(2.9 -2.65722e-16 0)
(2.9 -2.66212e-16 0)
(2.9 -1.54849e-16 0)
(2.9 -6.48177e-17 0)
(2.9 -2.17299e-17 0)
(2.9 -6.2012e-18 0)
(2.9 -1.56511e-18 0)
(2.9 -3.58439e-19 0)
(2.9 -7.58536e-20 0)
(2.9 -1.50326e-20 0)
(2.9 -2.81835e-21 0)
(2.9 -5.03844e-22 0)
(2.9 -8.64315e-23 0)
(2.9 -1.43e-23 0)
(2.9 -2.29143e-24 0)
(2.9 -3.56865e-25 0)
(2.9 -5.41754e-26 0)
(2.9 -8.03693e-27 0)
(2.9 -1.16762e-27 0)
(2.9 -1.66433e-28 0)
(2.9 -2.33138e-29 0)
(2.9 -3.21392e-30 0)
(2.9 -4.36568e-31 0)
(2.9 -5.84983e-32 0)
(2.9 -7.73998e-33 0)
(2.9 -1.01211e-33 0)
(2.9 -1.30902e-34 0)
(2.9 -1.67577e-35 0)
(2.9 -2.12475e-36 0)
(2.9 -2.66985e-37 0)
(2.9 -3.32646e-38 0)
(2.9 -4.11156e-39 0)
(2.9 -5.04378e-40 0)
(2.9 -6.1434e-41 0)
(2.9 -7.43241e-42 0)
(2.9 -8.93451e-43 0)
(2.9 -1.06751e-43 0)
(2.9 -1.26814e-44 0)
(2.9 -1.4982e-45 0)
(2.9 -1.76075e-46 0)
(2.9 -2.05899e-47 0)
(2.9 -2.39627e-48 0)
(2.9 -2.7761e-49 0)
(2.9 -3.20211e-50 0)
(2.9 -3.67807e-51 0)
(2.9 -4.20798e-52 0)
(2.9 -5.4081e-53 0)
(2.9 3.79946e-17 0)
(2.9 8.09297e-17 0)
(2.9 6.02402e-17 0)
(2.9 2.92624e-17 0)
(2.9 1.09711e-17 0)
(2.9 3.43532e-18 0)
(2.9 9.40155e-19 0)
(2.9 2.31552e-19 0)
(2.9 5.23696e-20 0)
(2.9 1.1037e-20 0)
(2.9 2.19153e-21 0)
(2.9 4.135e-22 0)
(2.9 -4.29209e-17 0)
(2.9 -1.2194e-16 0)
(2.9 -1.2882e-16 0)
(2.9 -8.02184e-17 0)
(2.9 -3.60446e-17 0)
(2.9 -1.29514e-17 0)
(2.9 -3.94982e-18 0)
(2.9 -1.06187e-18 0)
(2.9 -2.58208e-19 0)
(2.9 -5.78405e-20 0)
(2.9 -1.20994e-20 0)
(2.9 -2.38821e-21 0)
(2.9 -4.48422e-22 0)
(2.9 -8.0617e-23 0)
(2.9 -1.39502e-23 0)
(2.9 -2.33369e-24 0)
(2.9 -3.78781e-25 0)
(2.9 -5.98343e-26 0)
(2.9 -9.22287e-27 0)
(2.9 -1.39032e-27 0)
(2.9 -2.05371e-28 0)
(2.9 -2.97772e-29 0)
(2.9 -4.2442e-30 0)
(2.9 -5.95456e-31 0)
(2.9 -8.23291e-32 0)
(2.9 -1.12296e-32 0)
(2.9 -1.51246e-33 0)
(2.9 -2.01318e-34 0)
(2.9 -2.65026e-35 0)
(2.9 -3.45305e-36 0)
(2.9 -4.45551e-37 0)
(2.9 -5.69665e-38 0)
(2.9 -7.22099e-39 0)
(2.9 -9.07897e-40 0)
(2.9 -1.13274e-40 0)
(2.9 -1.40299e-41 0)
(2.9 -1.72572e-42 0)
(2.9 -2.10876e-43 0)
(2.9 -2.56075e-44 0)
(2.9 -3.09114e-45 0)
(2.9 -3.71024e-46 0)
(2.9 -4.42924e-47 0)
(2.9 -5.26023e-48 0)
(2.9 -6.21622e-49 0)
(2.9 -7.31116e-50 0)
(2.9 -8.55994e-51 0)
(2.9 -9.97871e-52 0)
(2.9 -1.30933e-52 0)
(2.9 1.59063e-17 0)
(2.9 3.70104e-17 0)
(2.9 2.97586e-17 0)
(2.9 1.55478e-17 0)
(2.9 6.24328e-18 0)
(2.9 2.08546e-18 0)
(2.9 6.06622e-19 0)
(2.9 1.58271e-19 0)
(2.9 3.78058e-20 0)
(2.9 8.39203e-21 0)
(2.9 1.75074e-21 0)
(2.9 3.46281e-22 0)
(2.9 -1.88366e-17 0)
(2.9 -5.53031e-17 0)
(2.9 -6.14827e-17 0)
(2.9 -4.07622e-17 0)
(2.9 -1.95456e-17 0)
(2.9 -7.48628e-18 0)
(2.9 -2.42803e-18 0)
(2.9 -6.92304e-19 0)
(2.9 -1.78054e-19 0)
(2.9 -4.20753e-20 0)
(2.9 -9.26191e-21 0)
(2.9 -1.91934e-21 0)
(2.9 -3.77563e-22 0)
(2.9 -7.09737e-23 0)
(2.9 -1.28184e-23 0)
(2.9 -2.23433e-24 0)
(2.9 -3.77285e-25 0)
(2.9 -6.19127e-26 0)
(2.9 -9.90054e-27 0)
(2.9 -1.54641e-27 0)
(2.9 -2.36406e-28 0)
(2.9 -3.5435e-29 0)
(2.9 -5.21587e-30 0)
(2.9 -7.54987e-31 0)
(2.9 -1.07598e-31 0)
(2.9 -1.51148e-32 0)
(2.9 -2.09487e-33 0)
(2.9 -2.86716e-34 0)
(2.9 -3.87827e-35 0)
(2.9 -5.18836e-36 0)
(2.9 -6.86934e-37 0)
(2.9 -9.00647e-38 0)
(2.9 -1.17001e-38 0)
(2.9 -1.50674e-39 0)
(2.9 -1.92443e-40 0)
(2.9 -2.43877e-41 0)
(2.9 -3.06771e-42 0)
(2.9 -3.83172e-43 0)
(2.9 -4.75395e-44 0)
(2.9 -5.86053e-45 0)
(2.9 -7.18069e-46 0)
(2.9 -8.74709e-47 0)
(2.9 -1.0596e-47 0)
(2.9 -1.27673e-48 0)
(2.9 -1.53052e-49 0)
(2.9 -1.8258e-50 0)
(2.9 -2.16791e-51 0)
(2.9 -2.90308e-52 0)
(2.9 6.60531e-18 0)
(2.9 1.67514e-17 0)
(2.9 1.44687e-17 0)
(2.9 8.08745e-18 0)
(2.9 3.46169e-18 0)
(2.9 1.22832e-18 0)
(2.9 3.78333e-19 0)
(2.9 1.04216e-19 0)
(2.9 2.62122e-20 0)
(2.9 6.11176e-21 0)
(2.9 1.33632e-21 0)
(2.9 2.76449e-22 0)
(2.9 -8.19475e-18 0)
(2.9 -2.48367e-17 0)
(2.9 -2.89955e-17 0)
(2.9 -2.03735e-17 0)
(2.9 -1.03744e-17 0)
(2.9 -4.21625e-18 0)
(2.9 -1.4482e-18 0)
(2.9 -4.3631e-19 0)
(2.9 -1.1829e-19 0)
(2.9 -2.93985e-20 0)
(2.9 -6.79132e-21 0)
(2.9 -1.47392e-21 0)
(2.9 -3.03076e-22 0)
(2.9 -5.94473e-23 0)
(2.9 -1.11847e-23 0)
(2.9 -2.02782e-24 0)
(2.9 -3.5565e-25 0)
(2.9 -6.0538e-26 0)
(2.9 -1.00291e-26 0)
(2.9 -1.62097e-27 0)
(2.9 -2.56145e-28 0)
(2.9 -3.96452e-29 0)
(2.9 -6.02e-30 0)
(2.9 -8.98104e-31 0)
(2.9 -1.31807e-31 0)
(2.9 -1.90514e-32 0)
(2.9 -2.71482e-33 0)
(2.9 -3.8175e-34 0)
(2.9 -5.30162e-35 0)
(2.9 -7.2771e-36 0)
(2.9 -9.87937e-37 0)
(2.9 -1.32738e-37 0)
(2.9 -1.76608e-38 0)
(2.9 -2.32811e-39 0)
(2.9 -3.0422e-40 0)
(2.9 -3.94238e-41 0)
(2.9 -5.06873e-42 0)
(2.9 -6.46809e-43 0)
(2.9 -8.19493e-44 0)
(2.9 -1.03122e-44 0)
(2.9 -1.28923e-45 0)
(2.9 -1.60181e-46 0)
(2.9 -1.97836e-47 0)
(2.9 -2.42956e-48 0)
(2.9 -2.96742e-49 0)
(2.9 -3.60544e-50 0)
(2.9 -4.35886e-51 0)
(2.9 -5.95501e-52 0)
(2.9 2.72492e-18 0)
(2.9 7.51384e-18 0)
(2.9 6.93895e-18 0)
(2.9 4.13085e-18 0)
(2.9 1.87701e-18 0)
(2.9 7.04895e-19 0)
(2.9 2.29138e-19 0)
(2.9 6.64417e-20 0)
(2.9 1.75492e-20 0)
(2.9 4.28761e-21 0)
(2.9 9.80344e-22 0)
(2.9 2.1169e-22 0)
(2.9 -3.5391e-18 0)
(2.9 -1.1062e-17 0)
(2.9 -1.35321e-17 0)
(2.9 -1.00382e-17 0)
(2.9 -5.40589e-18 0)
(2.9 -2.32204e-18 0)
(2.9 -8.4163e-19 0)
(2.9 -2.67046e-19 0)
(2.9 -7.60939e-20 0)
(2.9 -1.98364e-20 0)
(2.9 -4.79719e-21 0)
(2.9 -1.08795e-21 0)
(2.9 -2.33367e-22 0)
(2.9 -4.76734e-23 0)
(2.9 -9.32768e-24 0)
(2.9 -1.7562e-24 0)
(2.9 -3.19443e-25 0)
(2.9 -5.63236e-26 0)
(2.9 -9.65422e-27 0)
(2.9 -1.61271e-27 0)
(2.9 -2.63116e-28 0)
(2.9 -4.20069e-29 0)
(2.9 -6.57357e-30 0)
(2.9 -1.00981e-30 0)
(2.9 -1.52477e-31 0)
(2.9 -2.26579e-32 0)
(2.9 -3.31697e-33 0)
(2.9 -4.78843e-34 0)
(2.9 -6.8226e-35 0)
(2.9 -9.6019e-36 0)
(2.9 -1.33576e-36 0)
(2.9 -1.83802e-37 0)
(2.9 -2.50313e-38 0)
(2.9 -3.37576e-39 0)
(2.9 -4.51061e-40 0)
(2.9 -5.97422e-41 0)
(2.9 -7.84691e-42 0)
(2.9 -1.0225e-42 0)
(2.9 -1.32233e-43 0)
(2.9 -1.69776e-44 0)
(2.9 -2.16481e-45 0)
(2.9 -2.7422e-46 0)
(2.9 -3.45176e-47 0)
(2.9 -4.31874e-48 0)
(2.9 -5.37229e-49 0)
(2.9 -6.64582e-50 0)
(2.9 -8.17789e-51 0)
(2.9 -1.13946e-51 0)
(2.9 1.11802e-18 0)
(2.9 3.3438e-18 0)
(2.9 3.2883e-18 0)
(2.9 2.07677e-18 0)
(2.9 9.98193e-19 0)
(2.9 3.95459e-19 0)
(2.9 1.35274e-19 0)
(2.9 4.11803e-20 0)
(2.9 1.13948e-20 0)
(2.9 2.91074e-21 0)
(2.9 6.94565e-22 0)
(2.9 1.56259e-22 0)
(2.9 -1.51898e-18 0)
(2.9 -4.89186e-18 0)
(2.9 -6.25738e-18 0)
(2.9 -4.88425e-18 0)
(2.9 -2.77194e-18 0)
(2.9 -1.25415e-18 0)
(2.9 -4.78164e-19 0)
(2.9 -1.59326e-19 0)
(2.9 -4.75902e-20 0)
(2.9 -1.29814e-20 0)
(2.9 -3.27932e-21 0)
(2.9 -7.75585e-22 0)
(2.9 -1.73225e-22 0)
(2.9 -3.67925e-23 0)
(2.9 -7.47436e-24 0)
(2.9 -1.45925e-24 0)
(2.9 -2.74904e-25 0)
(2.9 -5.01436e-26 0)
(2.9 -8.88209e-27 0)
(2.9 -1.53176e-27 0)
(2.9 -2.57755e-28 0)
(2.9 -4.24048e-29 0)
(2.9 -6.83227e-30 0)
(2.9 -1.07975e-30 0)
(2.9 -1.67603e-31 0)
(2.9 -2.55844e-32 0)
(2.9 -3.84486e-33 0)
(2.9 -5.69419e-34 0)
(2.9 -8.31803e-35 0)
(2.9 -1.19951e-35 0)
(2.9 -1.70885e-36 0)
(2.9 -2.4067e-37 0)
(2.9 -3.35297e-38 0)
(2.9 -4.62356e-39 0)
(2.9 -6.31387e-40 0)
(2.9 -8.54279e-41 0)
(2.9 -1.14574e-41 0)
(2.9 -1.52384e-42 0)
(2.9 -2.01062e-43 0)
(2.9 -2.63278e-44 0)
(2.9 -3.4225e-45 0)
(2.9 -4.41828e-46 0)
(2.9 -5.66596e-47 0)
(2.9 -7.21983e-48 0)
(2.9 -9.14378e-49 0)
(2.9 -1.15127e-49 0)
(2.9 -1.44146e-50 0)
(2.9 -2.04772e-51 0)
(2.9 4.56643e-19 0)
(2.9 1.4777e-18 0)
(2.9 1.54201e-18 0)
(2.9 1.02967e-18 0)
(2.9 5.21866e-19 0)
(2.9 2.17485e-19 0)
(2.9 7.80816e-20 0)
(2.9 2.48955e-20 0)
(2.9 7.201e-21 0)
(2.9 1.9194e-21 0)
(2.9 4.77115e-22 0)
(2.9 1.11643e-22 0)
(2.9 -6.48479e-19 0)
(2.9 -2.14992e-18 0)
(2.9 -2.86989e-18 0)
(2.9 -2.3503e-18 0)
(2.9 -1.40135e-18 0)
(2.9 -6.6585e-19 0)
(2.9 -2.66301e-19 0)
(2.9 -9.29422e-20 0)
(2.9 -2.90325e-20 0)
(2.9 -8.26872e-21 0)
(2.9 -2.17759e-21 0)
(2.9 -5.36103e-22 0)
(2.9 -1.24463e-22 0)
(2.9 -2.74424e-23 0)
(2.9 -5.7799e-24 0)
(2.9 -1.16854e-24 0)
(2.9 -2.27706e-25 0)
(2.9 -4.29172e-26 0)
(2.9 -7.84733e-27 0)
(2.9 -1.39566e-27 0)
(2.9 -2.41988e-28 0)
(2.9 -4.0986e-29 0)
(2.9 -6.79318e-30 0)
(2.9 -1.10355e-30 0)
(2.9 -1.75955e-31 0)
(2.9 -2.75708e-32 0)
(2.9 -4.2504e-33 0)
(2.9 -6.45338e-34 0)
(2.9 -9.6589e-35 0)
(2.9 -1.42632e-35 0)
(2.9 -2.07967e-36 0)
(2.9 -2.99617e-37 0)
(2.9 -4.26789e-38 0)
(2.9 -6.01446e-39 0)
(2.9 -8.38989e-40 0)
(2.9 -1.15908e-40 0)
(2.9 -1.58662e-41 0)
(2.9 -2.1529e-42 0)
(2.9 -2.89698e-43 0)
(2.9 -3.86724e-44 0)
(2.9 -5.12325e-45 0)
(2.9 -6.73787e-46 0)
(2.9 -8.79968e-47 0)
(2.9 -1.14157e-47 0)
(2.9 -1.47147e-48 0)
(2.9 -1.88505e-49 0)
(2.9 -2.40075e-50 0)
(2.9 -3.4761e-51 0)
(2.9 1.85802e-19 0)
(2.9 6.48994e-19 0)
(2.9 7.16404e-19 0)
(2.9 5.04265e-19 0)
(2.9 2.68747e-19 0)
(2.9 1.17513e-19 0)
(2.9 4.41767e-20 0)
(2.9 1.47208e-20 0)
(2.9 4.44222e-21 0)
(2.9 1.23327e-21 0)
(2.9 3.18813e-22 0)
(2.9 7.74724e-23 0)
(2.9 -2.75565e-19 0)
(2.9 -9.39729e-19 0)
(2.9 -1.30665e-18 0)
(2.9 -1.11985e-18 0)
(2.9 -6.99582e-19 0)
(2.9 -3.48171e-19 0)
(2.9 -1.45707e-19 0)
(2.9 -5.31434e-20 0)
(2.9 -1.73237e-20 0)
(2.9 -5.14151e-21 0)
(2.9 -1.40901e-21 0)
(2.9 -3.60486e-22 0)
(2.9 -8.68597e-23 0)
(2.9 -1.9852e-23 0)
(2.9 -4.32913e-24 0)
(2.9 -9.05202e-25 0)
(2.9 -1.82241e-25 0)
(2.9 -3.54525e-26 0)
(2.9 -6.68464e-27 0)
(2.9 -1.22488e-27 0)
(2.9 -2.18628e-28 0)
(2.9 -3.80893e-29 0)
(2.9 -6.48892e-30 0)
(2.9 -1.08271e-30 0)
(2.9 -1.77195e-31 0)
(2.9 -2.84806e-32 0)
(2.9 -4.50103e-33 0)
(2.9 -7.00164e-34 0)
(2.9 -1.07307e-34 0)
(2.9 -1.62171e-35 0)
(2.9 -2.41871e-36 0)
(2.9 -3.56269e-37 0)
(2.9 -5.18613e-38 0)
(2.9 -7.46536e-39 0)
(2.9 -1.06328e-39 0)
(2.9 -1.4992e-40 0)
(2.9 -2.09364e-41 0)
(2.9 -2.89716e-42 0)
(2.9 -3.97421e-43 0)
(2.9 -5.40643e-44 0)
(2.9 -7.29641e-45 0)
(2.9 -9.77231e-46 0)
(2.9 -1.29931e-46 0)
(2.9 -1.71549e-47 0)
(2.9 -2.24982e-48 0)
(2.9 -2.93159e-49 0)
(2.9 -3.79657e-50 0)
(2.9 -5.6013e-51 0)
(2.9 7.53568e-20 0)
(2.9 2.8346e-19 0)
(2.9 3.30079e-19 0)
(2.9 2.44257e-19 0)
(2.9 1.36544e-19 0)
(2.9 6.25011e-20 0)
(2.9 2.45507e-20 0)
(2.9 8.53333e-21 0)
(2.9 2.68167e-21 0)
(2.9 7.74149e-22 0)
(2.9 2.07804e-22 0)
(2.9 5.23655e-23 0)
(2.9 -1.16623e-19 0)
(2.9 -4.08774e-19 0)
(2.9 -5.91018e-19 0)
(2.9 -5.28864e-19 0)
(2.9 -3.45332e-19 0)
(2.9 -1.79595e-19 0)
(2.9 -7.84707e-20 0)
(2.9 -2.98474e-20 0)
(2.9 -1.0134e-20 0)
(2.9 -3.12861e-21 0)
(2.9 -8.90727e-22 0)
(2.9 -2.36455e-22 0)
(2.9 -5.90466e-23 0)
(2.9 -1.39703e-23 0)
(2.9 -3.15036e-24 0)
(2.9 -6.80487e-25 0)
(2.9 -1.41389e-25 0)
(2.9 -2.83605e-26 0)
(2.9 -5.50889e-27 0)
(2.9 -1.03906e-27 0)
(2.9 -1.90756e-28 0)
(2.9 -3.41567e-29 0)
(2.9 -5.97639e-30 0)
(2.9 -1.02349e-30 0)
(2.9 -1.71809e-31 0)
(2.9 -2.83077e-32 0)
(2.9 -4.58328e-33 0)
(2.9 -7.30014e-34 0)
(2.9 -1.14497e-34 0)
(2.9 -1.76994e-35 0)
(2.9 -2.69882e-36 0)
(2.9 -4.06227e-37 0)
(2.9 -6.04008e-38 0)
(2.9 -8.87711e-39 0)
(2.9 -1.29036e-39 0)
(2.9 -1.85606e-40 0)
(2.9 -2.64326e-41 0)
(2.9 -3.72867e-42 0)
(2.9 -5.21223e-43 0)
(2.9 -7.22314e-44 0)
(2.9 -9.92715e-45 0)
(2.9 -1.35355e-45 0)
(2.9 -1.83155e-46 0)
(2.9 -2.46033e-47 0)
(2.9 -3.2819e-48 0)
(2.9 -4.34845e-49 0)
(2.9 -5.72481e-50 0)
(2.9 -8.60379e-51 0)
(2.9 3.04792e-20 0)
(2.9 1.23193e-19 0)
(2.9 1.5095e-19 0)
(2.9 1.17152e-19 0)
(2.9 6.85398e-20 0)
(2.9 3.27737e-20 0)
(2.9 1.34256e-20 0)
(2.9 4.85885e-21 0)
(2.9 1.58753e-21 0)
(2.9 4.75817e-22 0)
(2.9 1.32435e-22 0)
(2.9 3.45621e-23 0)
(2.9 -4.91784e-20 0)
(2.9 -1.77047e-19 0)
(2.9 -2.65743e-19 0)
(2.9 -2.47775e-19 0)
(2.9 -1.68744e-19 0)
(2.9 -9.15104e-20 0)
(2.9 -4.16621e-20 0)
(2.9 -1.6495e-20 0)
(2.9 -5.82299e-21 0)
(2.9 -1.86695e-21 0)
(2.9 -5.51357e-22 0)
(2.9 -1.51654e-22 0)
(2.9 -3.9196e-23 0)
(2.9 -9.58826e-24 0)
(2.9 -2.23331e-24 0)
(2.9 -4.97796e-25 0)
(2.9 -1.06635e-25 0)
(2.9 -2.20331e-26 0)
(2.9 -4.40507e-27 0)
(2.9 -8.54519e-28 0)
(2.9 -1.61223e-28 0)
(2.9 -2.96478e-29 0)
(2.9 -5.32394e-30 0)
(2.9 -9.35143e-31 0)
(2.9 -1.60909e-31 0)
(2.9 -2.71598e-32 0)
(2.9 -4.50242e-33 0)
(2.9 -7.33869e-34 0)
(2.9 -1.17728e-34 0)
(2.9 -1.86051e-35 0)
(2.9 -2.89891e-36 0)
(2.9 -4.45679e-37 0)
(2.9 -6.76556e-38 0)
(2.9 -1.01476e-38 0)
(2.9 -1.50472e-39 0)
(2.9 -2.20715e-40 0)
(2.9 -3.20414e-41 0)
(2.9 -4.6058e-42 0)
(2.9 -6.55852e-43 0)
(2.9 -9.25543e-44 0)
(2.9 -1.29493e-44 0)
(2.9 -1.79686e-45 0)
(2.9 -2.4737e-46 0)
(2.9 -3.37977e-47 0)
(2.9 -4.5842e-48 0)
(2.9 -6.17449e-49 0)
(2.9 -8.26124e-50 0)
(2.9 -1.26441e-50 0)
(2.9 1.22989e-20 0)
(2.9 5.33015e-20 0)
(2.9 6.85674e-20 0)
(2.9 5.56906e-20 0)
(2.9 3.40297e-20 0)
(2.9 1.69663e-20 0)
(2.9 7.23545e-21 0)
(2.9 2.72209e-21 0)
(2.9 9.23283e-22 0)
(2.9 2.86906e-22 0)
(2.9 8.26926e-23 0)
(2.9 2.23221e-23 0)
(2.9 -2.06711e-20 0)
(2.9 -7.63841e-20 0)
(2.9 -1.18845e-19 0)
(2.9 -1.15244e-19 0)
(2.9 -8.17002e-20 0)
(2.9 -4.61134e-20 0)
(2.9 -2.18356e-20 0)
(2.9 -8.98353e-21 0)
(2.9 -3.29203e-21 0)
(2.9 -1.09449e-21 0)
(2.9 -3.34821e-22 0)
(2.9 -9.52972e-23 0)
(2.9 -2.54612e-23 0)
(2.9 -6.4323e-24 0)
(2.9 -1.54583e-24 0)
(2.9 -3.55195e-25 0)
(2.9 -7.83702e-26 0)
(2.9 -1.66654e-26 0)
(2.9 -3.42648e-27 0)
(2.9 -6.83057e-28 0)
(2.9 -1.32343e-28 0)
(2.9 -2.49757e-29 0)
(2.9 -4.59977e-30 0)
(2.9 -8.28129e-31 0)
(2.9 -1.45971e-31 0)
(2.9 -2.52256e-32 0)
(2.9 -4.27919e-33 0)
(2.9 -7.13372e-34 0)
(2.9 -1.16991e-34 0)
(2.9 -1.88918e-35 0)
(2.9 -3.00645e-36 0)
(2.9 -4.71884e-37 0)
(2.9 -7.31025e-38 0)
(2.9 -1.1185e-38 0)
(2.9 -1.69125e-39 0)
(2.9 -2.52875e-40 0)
(2.9 -3.7407e-41 0)
(2.9 -5.47731e-42 0)
(2.9 -7.94231e-43 0)
(2.9 -1.14098e-43 0)
(2.9 -1.62456e-44 0)
(2.9 -2.29342e-45 0)
(2.9 -3.21125e-46 0)
(2.9 -4.46118e-47 0)
(2.9 -6.15101e-48 0)
(2.9 -8.41959e-49 0)
(2.9 -1.14455e-49 0)
(2.9 -1.78353e-50 0)
(2.9 4.95284e-21 0)
(2.9 2.29684e-20 0)
(2.9 3.09558e-20 0)
(2.9 2.62602e-20 0)
(2.9 1.67284e-20 0)
(2.9 8.68121e-21 0)
(2.9 3.84795e-21 0)
(2.9 1.50263e-21 0)
(2.9 5.28349e-22 0)
(2.9 1.69999e-22 0)
(2.9 5.06765e-23 0)
(2.9 1.41335e-23 0)
(2.9 -8.66344e-21 0)
(2.9 -3.28389e-20 0)
(2.9 -5.28889e-20 0)
(2.9 -5.32489e-20 0)
(2.9 -3.92268e-20 0)
(2.9 -2.30036e-20 0)
(2.9 -1.13105e-20 0)
(2.9 -4.82785e-21 0)
(2.9 -1.83382e-21 0)
(2.9 -6.31344e-22 0)
(2.9 -1.99804e-22 0)
(2.9 -5.8775e-23 0)
(2.9 -1.62146e-23 0)
(2.9 -4.22589e-24 0)
(2.9 -1.0468e-24 0)
(2.9 -2.47719e-25 0)
(2.9 -5.62457e-26 0)
(2.9 -1.22991e-26 0)
(2.9 -2.59845e-27 0)
(2.9 -5.31903e-28 0)
(2.9 -1.05755e-28 0)
(2.9 -2.04679e-29 0)
(2.9 -3.86354e-30 0)
(2.9 -7.12514e-31 0)
(2.9 -1.2858e-31 0)
(2.9 -2.27368e-32 0)
(2.9 -3.94469e-33 0)
(2.9 -6.72239e-34 0)
(2.9 -1.12646e-34 0)
(2.9 -1.85781e-35 0)
(2.9 -3.0183e-36 0)
(2.9 -4.83445e-37 0)
(2.9 -7.6397e-38 0)
(2.9 -1.19192e-38 0)
(2.9 -1.83709e-39 0)
(2.9 -2.79889e-40 0)
(2.9 -4.21739e-41 0)
(2.9 -6.2882e-42 0)
(2.9 -9.28193e-43 0)
(2.9 -1.35697e-43 0)
(2.9 -1.96562e-44 0)
(2.9 -2.82224e-45 0)
(2.9 -4.01802e-46 0)
(2.9 -5.67413e-47 0)
(2.9 -7.95052e-48 0)
(2.9 -1.10568e-48 0)
(2.9 -1.52673e-49 0)
(2.9 -2.4216e-50 0)
(2.9 1.99108e-21 0)
(2.9 9.8611e-21 0)
(2.9 1.38976e-20 0)
(2.9 1.22915e-20 0)
(2.9 8.14908e-21 0)
(2.9 4.39484e-21 0)
(2.9 2.02171e-21 0)
(2.9 8.18327e-22 0)
(2.9 2.979e-22 0)
(2.9 9.91265e-23 0)
(2.9 3.05275e-23 0)
(2.9 8.78714e-24 0)
(2.9 -3.6213e-21 0)
(2.9 -1.40728e-20 0)
(2.9 -2.3431e-20 0)
(2.9 -2.44553e-20 0)
(2.9 -1.86903e-20 0)
(2.9 -1.13698e-20 0)
(2.9 -5.79601e-21 0)
(2.9 -2.5631e-21 0)
(2.9 -1.00778e-21 0)
(2.9 -3.58824e-22 0)
(2.9 -1.17338e-22 0)
(2.9 -3.56333e-23 0)
(2.9 -1.01397e-23 0)
(2.9 -2.72349e-24 0)
(2.9 -6.9472e-25 0)
(2.9 -1.69164e-25 0)
(2.9 -3.94931e-26 0)
(2.9 -8.87318e-27 0)
(2.9 -1.92486e-27 0)
(2.9 -4.0431e-28 0)
(2.9 -8.24354e-29 0)
(2.9 -1.63514e-29 0)
(2.9 -3.1615e-30 0)
(2.9 -5.96887e-31 0)
(2.9 -1.10213e-31 0)
(2.9 -1.99315e-32 0)
(2.9 -3.5348e-33 0)
(2.9 -6.15484e-34 0)
(2.9 -1.05332e-34 0)
(2.9 -1.77342e-35 0)
(2.9 -2.94011e-36 0)
(2.9 -4.80362e-37 0)
(2.9 -7.74024e-38 0)
(2.9 -1.2309e-38 0)
(2.9 -1.93311e-39 0)
(2.9 -2.99993e-40 0)
(2.9 -4.60287e-41 0)
(2.9 -6.98609e-42 0)
(2.9 -1.04939e-42 0)
(2.9 -1.56074e-43 0)
(2.9 -2.29932e-44 0)
(2.9 -3.35672e-45 0)
(2.9 -4.85777e-46 0)
(2.9 -6.97135e-47 0)
(2.9 -9.92423e-48 0)
(2.9 -1.40188e-48 0)
(2.9 -1.96571e-49 0)
(2.9 -3.17285e-50 0)
(2.9 7.99233e-22 0)
(2.9 4.2195e-21 0)
(2.9 6.20753e-21 0)
(2.9 5.7145e-21 0)
(2.9 3.93686e-21 0)
(2.9 2.20322e-21 0)
(2.9 1.05043e-21 0)
(2.9 4.40154e-22 0)
(2.9 1.65692e-22 0)
(2.9 5.69541e-23 0)
(2.9 1.81012e-23 0)
(2.9 5.37209e-24 0)
(2.9 -1.51001e-21 0)
(2.9 -6.01309e-21 0)
(2.9 -1.03376e-20 0)
(2.9 -1.11692e-20 0)
(2.9 -8.84289e-21 0)
(2.9 -5.57217e-21 0)
(2.9 -2.94094e-21 0)
(2.9 -1.34559e-21 0)
(2.9 -5.46968e-22 0)
(2.9 -2.01175e-22 0)
(2.9 -6.78988e-23 0)
(2.9 -2.12645e-23 0)
(2.9 -6.23513e-24 0)
(2.9 -1.72437e-24 0)
(2.9 -4.52553e-25 0)
(2.9 -1.13294e-25 0)
(2.9 -2.71743e-26 0)
(2.9 -6.26849e-27 0)
(2.9 -1.39525e-27 0)
(2.9 -3.00518e-28 0)
(2.9 -6.27939e-29 0)
(2.9 -1.27574e-29 0)
(2.9 -2.52506e-30 0)
(2.9 -4.87771e-31 0)
(2.9 -9.21064e-32 0)
(2.9 -1.70263e-32 0)
(2.9 -3.08512e-33 0)
(2.9 -5.48606e-34 0)
(2.9 -9.58421e-35 0)
(2.9 -1.6466e-35 0)
(2.9 -2.7845e-36 0)
(2.9 -4.63873e-37 0)
(2.9 -7.61857e-38 0)
(2.9 -1.23447e-38 0)
(2.9 -1.97471e-39 0)
(2.9 -3.12039e-40 0)
(2.9 -4.87349e-41 0)
(2.9 -7.52711e-42 0)
(2.9 -1.15023e-42 0)
(2.9 -1.73985e-43 0)
(2.9 -2.60611e-44 0)
(2.9 -3.86728e-45 0)
(2.9 -5.68739e-46 0)
(2.9 -8.2922e-47 0)
(2.9 -1.19901e-47 0)
(2.9 -1.7199e-48 0)
(2.9 -2.44843e-49 0)
(2.9 -4.02075e-50 0)
(2.9 3.20403e-22 0)
(2.9 1.79995e-21 0)
(2.9 2.75967e-21 0)
(2.9 2.64027e-21 0)
(2.9 1.88742e-21 0)
(2.9 1.09462e-21 0)
(2.9 5.40203e-22 0)
(2.9 2.34048e-22 0)
(2.9 9.10057e-23 0)
(2.9 3.22805e-23 0)
(2.9 1.05773e-23 0)
(2.9 3.23357e-24 0)
(2.9 -6.28214e-22 0)
(2.9 -2.56237e-21 0)
(2.9 -4.54349e-21 0)
(2.9 -5.07504e-21 0)
(2.9 -4.15678e-21 0)
(2.9 -2.70958e-21 0)
(2.9 -1.47874e-21 0)
(2.9 -6.99157e-22 0)
(2.9 -2.93474e-22 0)
(2.9 -1.11377e-22 0)
(2.9 -3.87584e-23 0)
(2.9 -1.25056e-23 0)
(2.9 -3.77498e-24 0)
(2.9 -1.07399e-24 0)
(2.9 -2.89758e-25 0)
(2.9 -7.45197e-26 0)
(2.9 -1.83498e-26 0)
(2.9 -4.34286e-27 0)
(2.9 -9.91151e-28 0)
(2.9 -2.18767e-28 0)
(2.9 -4.68178e-29 0)
(2.9 -9.73657e-30 0)
(2.9 -1.97171e-30 0)
(2.9 -3.89494e-31 0)
(2.9 -7.51767e-32 0)
(2.9 -1.41979e-32 0)
(2.9 -2.62724e-33 0)
(2.9 -4.76903e-34 0)
(2.9 -8.50142e-35 0)
(2.9 -1.48977e-35 0)
(2.9 -2.56871e-36 0)
(2.9 -4.36159e-37 0)
(2.9 -7.29872e-38 0)
(2.9 -1.20458e-38 0)
(2.9 -1.962e-39 0)
(2.9 -3.1558e-40 0)
(2.9 -5.01552e-41 0)
(2.9 -7.88044e-42 0)
(2.9 -1.22471e-42 0)
(2.9 -1.88349e-43 0)
(2.9 -2.86771e-44 0)
(2.9 -4.3244e-45 0)
(2.9 -6.46106e-46 0)
(2.9 -9.56811e-47 0)
(2.9 -1.40489e-47 0)
(2.9 -2.04592e-48 0)
(2.9 -2.95627e-49 0)
(2.9 -4.93805e-50 0)
(2.9 1.28302e-22 0)
(2.9 7.65659e-22 0)
(2.9 1.22156e-21 0)
(2.9 1.21291e-21 0)
(2.9 8.98499e-22 0)
(2.9 5.39335e-22 0)
(2.9 2.75183e-22 0)
(2.9 1.2314e-22 0)
(2.9 4.94057e-23 0)
(2.9 1.80663e-23 0)
(2.9 6.09745e-24 0)
(2.9 1.91845e-24 0)
(2.9 -2.60797e-22 0)
(2.9 -1.08919e-21 0)
(2.9 -1.98986e-21 0)
(2.9 -2.29507e-21 0)
(2.9 -1.94229e-21 0)
(2.9 -1.3081e-21 0)
(2.9 -7.37291e-22 0)
(2.9 -3.5982e-22 0)
(2.9 -1.55795e-22 0)
(2.9 -6.0947e-23 0)
(2.9 -2.18464e-23 0)
(2.9 -7.25547e-24 0)
(2.9 -2.25277e-24 0)
(2.9 -6.58788e-25 0)
(2.9 -1.82572e-25 0)