/*--------------------------------*- C++ -*----------------------------------*\
| =========                 |                                                 |
| \\      /  F ield         | OpenFOAM: The Open Source CFD Toolbox           |
|  \\    /   O peration     | Version:  2412                                  |
|   \\  /    A nd           | Website:  www.openfoam.com                      |
|    \\/     M anipulation  |                                                 |
\*---------------------------------------------------------------------------*/
FoamFile
{
    version     2.0;
    format      ascii;
    arch        "LSB;label=32;scalar=64";
    class       volVectorField;
    location    "0.0025";
    object      U;
}
// * * * * * * * * * * * * * * * * * * * * * * * * * * * * * * * * * * * * * //

dimensions      [0 1 -1 0 0 0 0];

internalField   nonuniform List<vector> 
1800
(
(2.9 1.74998e-14 0)
(2.9 3.31101e-14 0)
(2.9 3.11421e-15 0)
(2.9 3.09155e-16 0)
(2.9 3.15295e-17 0)
(2.9 3.22565e-18 0)
(2.9 3.27618e-19 0)
(2.9 3.29254e-20 0)
(2.9 3.27379e-21 0)
(2.9 3.22408e-22 0)
(2.9 3.14943e-23 0)
(2.9 3.05605e-24 0)
(2.9 -1.13472e-14 0)
(2.9 -2.22438e-14 0)
(2.9 -3.37758e-14 0)
(2.9 -3.19735e-15 0)
(2.9 -3.18758e-16 0)
(2.9 -3.2581e-17 0)
(2.9 -3.33653e-18 0)
(2.9 -3.38998e-19 0)
(2.9 -3.40705e-20 0)
(2.9 -3.3873e-21 0)
(2.9 -3.33537e-22 0)
(2.9 -3.25763e-23 0)
(2.9 -3.16058e-24 0)
(2.9 -3.05003e-25 0)
(2.9 -2.93083e-26 0)
(2.9 -2.80686e-27 0)
(2.9 -2.68108e-28 0)
(2.9 -2.55572e-29 0)
(2.9 -2.43238e-30 0)
(2.9 -2.31217e-31 0)
(2.9 -2.19585e-32 0)
(2.9 -2.0839e-33 0)
(2.9 -1.97658e-34 0)
(2.9 -1.87402e-35 0)
(2.9 -1.77622e-36 0)
(2.9 -1.68312e-37 0)
(2.9 -1.59463e-38 0)
(2.9 -1.51058e-39 0)
(2.9 -1.43082e-40 0)
(2.9 -1.35517e-41 0)
(2.9 -1.28345e-42 0)
(2.9 -1.21547e-43 0)
(2.9 -1.15106e-44 0)
(2.9 -1.09003e-45 0)
(2.9 -1.03223e-46 0)
(2.9 -9.77472e-48 0)
(2.9 -9.25614e-49 0)
(2.9 -8.76501e-50 0)
(2.9 -8.2999e-51 0)
(2.9 -7.85944e-52 0)
(2.9 -7.44233e-53 0)
(2.9 -7.04735e-54 0)
(2.9 -6.67331e-55 0)
(2.9 -6.31912e-56 0)
(2.9 -5.98373e-57 0)
(2.9 -5.66613e-58 0)
(2.9 -5.36539e-59 0)
(2.9 -5.61202e-60 0)
(2.9 1.56284e-14 0)
(2.9 1.88786e-14 0)
(2.9 3.89198e-15 0)
(2.9 6.28112e-16 0)
(2.9 9.08445e-17 0)
(2.9 1.22744e-17 0)
(2.9 1.57953e-18 0)
(2.9 1.95808e-19 0)
(2.9 2.35625e-20 0)
(2.9 2.76756e-21 0)
(2.9 3.18613e-22 0)
(2.9 3.60673e-23 0)
(2.9 -1.0828e-14 0)
(2.9 -2.24411e-14 0)
(2.9 -2.02094e-14 0)
(2.9 -4.11209e-15 0)
(2.9 -6.60762e-16 0)
(2.9 -9.53339e-17 0)
(2.9 -1.28584e-17 0)
(2.9 -1.65239e-18 0)
(2.9 -2.04603e-19 0)
(2.9 -2.4597e-20 0)
(2.9 -2.88668e-21 0)
(2.9 -3.3209e-22 0)
(2.9 -3.75698e-23 0)
(2.9 -4.19026e-24 0)
(2.9 -4.61677e-25 0)
(2.9 -5.03317e-26 0)
(2.9 -5.43665e-27 0)
(2.9 -5.82495e-28 0)
(2.9 -6.19621e-29 0)
(2.9 -6.54897e-30 0)
(2.9 -6.8821e-31 0)
(2.9 -7.19479e-32 0)
(2.9 -7.48646e-33 0)
(2.9 -7.75676e-34 0)
(2.9 -8.00554e-35 0)
(2.9 -8.2328e-36 0)
(2.9 -8.4387e-37 0)
(2.9 -8.62352e-38 0)
(2.9 -8.78763e-39 0)
(2.9 -8.93152e-40 0)
(2.9 -9.05571e-41 0)
(2.9 -9.16081e-42 0)
(2.9 -9.24748e-43 0)
(2.9 -9.31641e-44 0)
(2.9 -9.36832e-45 0)
(2.9 -9.40395e-46 0)
(2.9 -9.42407e-47 0)
(2.9 -9.42944e-48 0)
(2.9 -9.42083e-49 0)
(2.9 -9.39902e-50 0)
(2.9 -9.36477e-51 0)
(2.9 -9.31883e-52 0)
(2.9 -9.26196e-53 0)
(2.9 -9.19487e-54 0)
(2.9 -9.11829e-55 0)
(2.9 -9.03291e-56 0)
(2.9 -8.93945e-57 0)
(2.9 -9.80656e-58 0)
(2.9 9.27934e-15 0)
(2.9 1.04447e-14 0)
(2.9 3.0765e-15 0)
(2.9 6.4662e-16 0)
(2.9 1.14846e-16 0)
(2.9 1.83638e-17 0)
(2.9 2.72823e-18 0)
(2.9 3.83611e-19 0)
(2.9 5.16646e-20 0)
(2.9 6.72062e-21 0)
(2.9 8.49541e-22 0)
(2.9 1.04838e-22 0)
(2.9 -6.82094e-15 0)
(2.9 -1.48139e-14 0)
(2.9 -1.17888e-14 0)
(2.9 -3.34314e-15 0)
(2.9 -6.92943e-16 0)
(2.9 -1.22174e-16 0)
(2.9 -1.94451e-17 0)
(2.9 -2.87948e-18 0)
(2.9 -4.03887e-19 0)
(2.9 -5.42909e-20 0)
(2.9 -7.05128e-21 0)
(2.9 -8.90191e-22 0)
(2.9 -1.09735e-22 0)
(2.9 -1.32554e-23 0)
(2.9 -1.57342e-24 0)
(2.9 -1.83945e-25 0)
(2.9 -2.12193e-26 0)
(2.9 -2.41907e-27 0)
(2.9 -2.72899e-28 0)
(2.9 -3.04978e-29 0)
(2.9 -3.37954e-30 0)
(2.9 -3.71635e-31 0)
(2.9 -4.05837e-32 0)
(2.9 -4.40378e-33 0)
(2.9 -4.75084e-34 0)
(2.9 -5.0979e-35 0)
(2.9 -5.44337e-36 0)
(2.9 -5.78577e-37 0)
(2.9 -6.12371e-38 0)
(2.9 -6.4559e-39 0)
(2.9 -6.78116e-40 0)
(2.9 -7.0984e-41 0)
(2.9 -7.40663e-42 0)
(2.9 -7.70497e-43 0)
(2.9 -7.99262e-44 0)
(2.9 -8.2689e-45 0)
(2.9 -8.53319e-46 0)
(2.9 -8.78497e-47 0)
(2.9 -9.02383e-48 0)
(2.9 -9.24939e-49 0)
(2.9 -9.46139e-50 0)
(2.9 -9.65961e-51 0)
(2.9 -9.84392e-52 0)
(2.9 -1.00142e-52 0)
(2.9 -1.01705e-53 0)
(2.9 -1.03129e-54 0)
(2.9 -1.04414e-55 0)
(2.9 -1.17402e-56 0)
(2.9 4.78367e-15 0)
(2.9 5.57274e-15 0)
(2.9 2.05756e-15 0)
(2.9 5.23011e-16 0)
(2.9 1.08887e-16 0)
(2.9 1.99483e-17 0)
(2.9 3.33881e-18 0)
(2.9 5.22142e-19 0)
(2.9 7.74249e-20 0)
(2.9 1.09981e-20 0)
(2.9 1.50783e-21 0)
(2.9 2.00645e-22 0)
(2.9 -3.71399e-15 0)
(2.9 -8.42571e-15 0)
(2.9 -6.62817e-15 0)
(2.9 -2.30085e-15 0)
(2.9 -5.71225e-16 0)
(2.9 -1.17467e-16 0)
(2.9 -2.13567e-17 0)
(2.9 -3.55596e-18 0)
(2.9 -5.53983e-19 0)
(2.9 -8.19065e-20 0)
(2.9 -1.16077e-20 0)
(2.9 -1.58839e-21 0)
(2.9 -2.11033e-22 0)
(2.9 -2.734e-23 0)
(2.9 -3.46568e-24 0)
(2.9 -4.31048e-25 0)
(2.9 -5.27228e-26 0)
(2.9 -6.35371e-27 0)
(2.9 -7.55622e-28 0)
(2.9 -8.88007e-29 0)
(2.9 -1.03244e-29 0)
(2.9 -1.18873e-30 0)
(2.9 -1.35658e-31 0)
(2.9 -1.53562e-32 0)
(2.9 -1.72537e-33 0)
(2.9 -1.92531e-34 0)
(2.9 -2.13484e-35 0)
(2.9 -2.35328e-36 0)
(2.9 -2.57995e-37 0)
(2.9 -2.81408e-38 0)
(2.9 -3.05492e-39 0)
(2.9 -3.30164e-40 0)
(2.9 -3.55344e-41 0)
(2.9 -3.80949e-42 0)
(2.9 -4.06896e-43 0)
(2.9 -4.33101e-44 0)
(2.9 -4.59482e-45 0)
(2.9 -4.85957e-46 0)
(2.9 -5.12448e-47 0)
(2.9 -5.38877e-48 0)
(2.9 -5.65168e-49 0)
(2.9 -5.91248e-50 0)
(2.9 -6.17049e-51 0)
(2.9 -6.42503e-52 0)
(2.9 -6.67546e-53 0)
(2.9 -6.9212e-54 0)
(2.9 -7.16176e-55 0)
(2.9 -8.24542e-56 0)
(2.9 2.31903e-15 0)
(2.9 2.87753e-15 0)
(2.9 1.25457e-15 0)
(2.9 3.70588e-16 0)
(2.9 8.79929e-17 0)
(2.9 1.81039e-17 0)
(2.9 3.36149e-18 0)
(2.9 5.77472e-19 0)
(2.9 9.33122e-20 0)
(2.9 1.43478e-20 0)
(2.9 2.11722e-21 0)
(2.9 3.0177e-22 0)
(2.9 -1.87576e-15 0)
(2.9 -4.43535e-15 0)
(2.9 -3.59658e-15 0)
(2.9 -1.44364e-15 0)
(2.9 -4.12648e-16 0)
(2.9 -9.62974e-17 0)
(2.9 -1.96026e-17 0)
(2.9 -3.61358e-18 0)
(2.9 -6.17544e-19 0)
(2.9 -9.93918e-20 0)
(2.9 -1.5235e-20 0)
(2.9 -2.24246e-21 0)
(2.9 -3.18954e-22 0)
(2.9 -4.40536e-23 0)
(2.9 -5.93181e-24 0)
(2.9 -7.81128e-25 0)
(2.9 -1.00861e-25 0)
(2.9 -1.27977e-26 0)
(2.9 -1.59864e-27 0)
(2.9 -1.96904e-28 0)
(2.9 -2.39456e-29 0)
(2.9 -2.87851e-30 0)
(2.9 -3.42389e-31 0)
(2.9 -4.03332e-32 0)
(2.9 -4.70907e-33 0)
(2.9 -5.45301e-34 0)
(2.9 -6.2666e-35 0)
(2.9 -7.15088e-36 0)
(2.9 -8.10647e-37 0)
(2.9 -9.13357e-38 0)
(2.9 -1.0232e-38 0)
(2.9 -1.1401e-39 0)
(2.9 -1.26398e-40 0)
(2.9 -1.39468e-41 0)
(2.9 -1.53203e-42 0)
(2.9 -1.67582e-43 0)
(2.9 -1.82581e-44 0)
(2.9 -1.98173e-45 0)
(2.9 -2.14327e-46 0)
(2.9 -2.31012e-47 0)
(2.9 -2.48192e-48 0)
(2.9 -2.65831e-49 0)
(2.9 -2.83891e-50 0)
(2.9 -3.02331e-51 0)
(2.9 -3.21111e-52 0)
(2.9 -3.40188e-53 0)
(2.9 -3.59525e-54 0)
(2.9 -4.23559e-55 0)
(2.9 1.04607e-15 0)
(2.9 1.44041e-15 0)
(2.9 7.19212e-16 0)
(2.9 2.40865e-16 0)
(2.9 6.40272e-17 0)
(2.9 1.45842e-17 0)
(2.9 2.97015e-18 0)
(2.9 5.5531e-19 0)
(2.9 9.70192e-20 0)
(2.9 1.60399e-20 0)
(2.9 2.53275e-21 0)
(2.9 3.84677e-22 0)
(2.9 -9.04748e-16 0)
(2.9 -2.22573e-15 0)
(2.9 -1.89198e-15 0)
(2.9 -8.51912e-16 0)
(2.9 -2.73538e-16 0)
(2.9 -7.11062e-17 0)
(2.9 -1.59757e-17 0)
(2.9 -3.22352e-18 0)
(2.9 -5.98668e-19 0)
(2.9 -1.04068e-19 0)
(2.9 -1.71373e-20 0)
(2.9 -2.69744e-21 0)
(2.9 -4.0862e-22 0)
(2.9 -5.98938e-23 0)
(2.9 -8.53118e-24 0)
(2.9 -1.18501e-24 0)
(2.9 -1.60982e-25 0)
(2.9 -2.144e-26 0)
(2.9 -2.80513e-27 0)
(2.9 -3.61173e-28 0)
(2.9 -4.58317e-29 0)
(2.9 -5.73938e-30 0)
(2.9 -7.10077e-31 0)
(2.9 -8.68798e-32 0)
(2.9 -1.05217e-32 0)
(2.9 -1.26223e-33 0)
(2.9 -1.50102e-34 0)
(2.9 -1.77049e-35 0)
(2.9 -2.07252e-36 0)
(2.9 -2.40894e-37 0)
(2.9 -2.78143e-38 0)
(2.9 -3.19157e-39 0)
(2.9 -3.64082e-40 0)
(2.9 -4.13048e-41 0)
(2.9 -4.6617e-42 0)
(2.9 -5.23546e-43 0)
(2.9 -5.85259e-44 0)
(2.9 -6.51372e-45 0)
(2.9 -7.21932e-46 0)
(2.9 -7.96966e-47 0)
(2.9 -8.76483e-48 0)
(2.9 -9.60474e-49 0)
(2.9 -1.04891e-49 0)
(2.9 -1.14175e-50 0)
(2.9 -1.23892e-51 0)
(2.9 -1.34035e-52 0)
(2.9 -1.44597e-53 0)
(2.9 -1.74221e-54 0)
(2.9 4.28862e-16 0)
(2.9 7.0014e-16 0)
(2.9 3.93934e-16 0)
(2.9 1.47139e-16 0)
(2.9 4.3205e-17 0)
(2.9 1.07781e-17 0)
(2.9 2.38625e-18 0)
(2.9 4.81949e-19 0)
(2.9 9.0466e-20 0)
(2.9 1.59934e-20 0)
(2.9 2.6894e-21 0)
(2.9 4.33416e-22 0)
(2.9 -4.23034e-16 0)
(2.9 -1.08098e-15 0)
(2.9 -9.69439e-16 0)
(2.9 -4.80729e-16 0)
(2.9 -1.70505e-16 0)
(2.9 -4.87084e-17 0)
(2.9 -1.19475e-17 0)
(2.9 -2.61524e-18 0)
(2.9 -5.23897e-19 0)
(2.9 -9.77364e-20 0)
(2.9 -1.7196e-20 0)
(2.9 -2.88048e-21 0)
(2.9 -4.62745e-22 0)
(2.9 -7.17055e-23 0)
(2.9 -1.07673e-23 0)
(2.9 -1.57269e-24 0)
(2.9 -2.24141e-25 0)
(2.9 -3.1252e-26 0)
(2.9 -4.27245e-27 0)
(2.9 -5.73776e-28 0)
(2.9 -7.582e-29 0)
(2.9 -9.8723e-30 0)
(2.9 -1.26819e-30 0)
(2.9 -1.60899e-31 0)
(2.9 -2.0181e-32 0)
(2.9 -2.50454e-33 0)
(2.9 -3.07779e-34 0)
(2.9 -3.74776e-35 0)
(2.9 -4.52475e-36 0)
(2.9 -5.41935e-37 0)
(2.9 -6.44243e-38 0)
(2.9 -7.60502e-39 0)
(2.9 -8.91826e-40 0)
(2.9 -1.03933e-40 0)
(2.9 -1.20413e-41 0)
(2.9 -1.38733e-42 0)
(2.9 -1.59001e-43 0)
(2.9 -1.81323e-44 0)
(2.9 -2.058e-45 0)
(2.9 -2.32531e-46 0)
(2.9 -2.6161e-47 0)
(2.9 -2.93125e-48 0)
(2.9 -3.27157e-49 0)
(2.9 -3.63783e-50 0)
(2.9 -4.03072e-51 0)
(2.9 -4.45084e-52 0)
(2.9 -4.89884e-53 0)
(2.9 -6.03365e-54 0)
(2.9 1.86952e-16 0)
(2.9 3.33891e-16 0)
(2.9 2.08425e-16 0)
(2.9 8.57532e-17 0)
(2.9 2.75294e-17 0)
(2.9 7.4572e-18 0)
(2.9 1.78199e-18 0)
(2.9 3.86415e-19 0)
(2.9 7.75177e-20 0)
(2.9 1.45868e-20 0)
(2.9 2.60148e-21 0)
(2.9 4.43234e-22 0)
(2.9 -1.93412e-16 0)
(2.9 -5.12623e-16 0)
(2.9 -4.85833e-16 0)
(2.9 -2.6205e-16 0)
(2.9 -1.01428e-16 0)
(2.9 -3.15152e-17 0)
(2.9 -8.36713e-18 0)
(2.9 -1.97257e-18 0)
(2.9 -4.23611e-19 0)
(2.9 -8.43621e-20 0)
(2.9 -1.57849e-20 0)
(2.9 -2.80238e-21 0)
(2.9 -4.75688e-22 0)
(2.9 -7.76704e-23 0)
(2.9 -1.22588e-23 0)
(2.9 -1.87774e-24 0)
(2.9 -2.80068e-25 0)
(2.9 -4.07891e-26 0)
(2.9 -5.81445e-27 0)
(2.9 -8.12901e-28 0)
(2.9 -1.11659e-28 0)
(2.9 -1.50917e-29 0)
(2.9 -2.0098e-30 0)
(2.9 -2.64026e-31 0)
(2.9 -3.4251e-32 0)
(2.9 -4.3917e-33 0)
(2.9 -5.57038e-34 0)
(2.9 -6.99443e-35 0)
(2.9 -8.70013e-36 0)
(2.9 -1.07267e-36 0)
(2.9 -1.31164e-37 0)
(2.9 -1.59142e-38 0)
(2.9 -1.9168e-39 0)
(2.9 -2.29281e-40 0)
(2.9 -2.72475e-41 0)
(2.9 -3.21815e-42 0)
(2.9 -3.77873e-43 0)
(2.9 -4.4124e-44 0)
(2.9 -5.12525e-45 0)
(2.9 -5.92347e-46 0)
(2.9 -6.81339e-47 0)
(2.9 -7.80138e-48 0)
(2.9 -8.89388e-49 0)
(2.9 -1.00973e-49 0)
(2.9 -1.14181e-50 0)
(2.9 -1.28627e-51 0)
(2.9 -1.44376e-52 0)
(2.9 -1.81691e-53 0)
(2.9 8.01265e-17 0)
(2.9 1.5667e-16 0)
(2.9 1.07289e-16 0)
(2.9 4.81552e-17 0)
(2.9 1.67635e-17 0)
(2.9 4.89651e-18 0)
(2.9 1.25538e-18 0)
(2.9 2.90768e-19 0)
(2.9 6.20578e-20 0)
(2.9 1.23802e-20 0)
(2.9 2.33345e-21 0)
(2.9 4.1898e-22 0)
(2.9 -8.6943e-17 0)
(2.9 -2.38696e-16 0)
(2.9 -2.38941e-16 0)
(2.9 -1.38931e-16 0)
(2.9 -5.81437e-17 0)
(2.9 -1.94909e-17 0)
(2.9 -5.56209e-18 0)
(2.9 -1.40381e-18 0)
(2.9 -3.21509e-19 0)
(2.9 -6.80414e-20 0)
(2.9 -1.34851e-20 0)
(2.9 -2.52837e-21 0)
(2.9 -4.52034e-22 0)
(2.9 -7.75489e-23 0)
(2.9 -1.28313e-23 0)
(2.9 -2.05624e-24 0)
(2.9 -3.20259e-25 0)
(2.9 -4.8622e-26 0)
(2.9 -7.21363e-27 0)
(2.9 -1.04809e-27 0)
(2.9 -1.49407e-28 0)
(2.9 -2.09304e-29 0)
(2.9 -2.88559e-30 0)
(2.9 -3.91998e-31 0)
(2.9 -5.25304e-32 0)
(2.9 -6.95091e-33 0)
(2.9 -9.08997e-34 0)
(2.9 -1.17576e-34 0)
(2.9 -1.50529e-35 0)
(2.9 -1.90875e-36 0)
(2.9 -2.39863e-37 0)
(2.9 -2.98877e-38 0)
(2.9 -3.69447e-39 0)
(2.9 -4.53249e-40 0)
(2.9 -5.52109e-41 0)
(2.9 -6.68007e-42 0)
(2.9 -8.03077e-43 0)
(2.9 -9.59609e-44 0)
(2.9 -1.14005e-44 0)
(2.9 -1.34698e-45 0)
(2.9 -1.58316e-46 0)
(2.9 -1.85147e-47 0)
(2.9 -2.15493e-48 0)
(2.9 -2.49671e-49 0)
(2.9 -2.88008e-50 0)
(2.9 -3.30845e-51 0)
(2.9 -3.78541e-52 0)
(2.9 -4.86546e-53 0)
(2.9 3.38992e-17 0)
(2.9 7.25022e-17 0)
(2.9 5.40032e-17 0)
(2.9 2.62378e-17 0)
(2.9 9.83795e-18 0)
(2.9 3.08067e-18 0)
(2.9 8.43143e-19 0)
(2.9 2.0767e-19 0)
(2.9 4.69712e-20 0)
(2.9 9.8999e-21 0)
(2.9 1.96588e-21 0)
(2.9 3.7095e-22 0)
(2.9 -3.85682e-17 0)
(2.9 -1.09548e-16 0)
(2.9 -1.15646e-16 0)
(2.9 -7.19871e-17 0)
(2.9 -3.23396e-17 0)
(2.9 -1.1619e-17 0)
(2.9 -3.54335e-18 0)
(2.9 -9.52593e-19 0)
(2.9 -2.31639e-19 0)
(2.9 -5.18908e-20 0)
(2.9 -1.08553e-20 0)
(2.9 -2.14277e-21 0)
(2.9 -4.02361e-22 0)
(2.9 -7.23406e-23 0)
(2.9 -1.25189e-23 0)
(2.9 -2.09439e-24 0)
(2.9 -3.39965e-25 0)
(2.9 -5.37066e-26 0)
(2.9 -8.27896e-27 0)
(2.9 -1.24812e-27 0)
(2.9 -1.8438e-28 0)
(2.9 -2.67358e-29 0)
(2.9 -3.81099e-30 0)
(2.9 -5.34719e-31 0)
(2.9 -7.39373e-32 0)
(2.9 -1.00857e-32 0)
(2.9 -1.35851e-33 0)
(2.9 -1.8084e-34 0)
(2.9 -2.38087e-35 0)
(2.9 -3.10231e-36 0)
(2.9 -4.00326e-37 0)
(2.9 -5.11883e-38 0)
(2.9 -6.48908e-39 0)
(2.9 -8.15939e-40 0)
(2.9 -1.01809e-40 0)
(2.9 -1.26109e-41 0)
(2.9 -1.5513e-42 0)
(2.9 -1.89578e-43 0)
(2.9 -2.30231e-44 0)
(2.9 -2.7794e-45 0)
(2.9 -3.33633e-46 0)
(2.9 -3.98319e-47 0)
(2.9 -4.73087e-48 0)
(2.9 -5.59112e-49 0)
(2.9 -6.57649e-50 0)
(2.9 -7.70041e-51 0)
(2.9 -8.97744e-52 0)
(2.9 -1.17806e-52 0)
(2.9 1.41965e-17 0)
(2.9 3.31545e-17 0)
(2.9 2.66779e-17 0)
(2.9 1.39417e-17 0)
(2.9 5.59898e-18 0)
(2.9 1.87038e-18 0)
(2.9 5.4409e-19 0)
(2.9 1.41965e-19 0)
(2.9 3.39127e-20 0)
(2.9 7.52831e-21 0)
(2.9 1.57066e-21 0)
(2.9 3.10683e-22 0)
(2.9 -1.69277e-17 0)
(2.9 -4.96876e-17 0)
(2.9 -5.52048e-17 0)
(2.9 -3.65865e-17 0)
(2.9 -1.75398e-17 0)
(2.9 -6.7173e-18 0)
(2.9 -2.17852e-18 0)
(2.9 -6.21154e-19 0)
(2.9 -1.59756e-19 0)
(2.9 -3.77526e-20 0)
(2.9 -8.3107e-21 0)
(2.9 -1.72231e-21 0)
(2.9 -3.38822e-22 0)
(2.9 -6.3695e-23 0)
(2.9 -1.15046e-23 0)
(2.9 -2.00545e-24 0)
(2.9 -3.3866e-25 0)
(2.9 -5.55782e-26 0)
(2.9 -8.88823e-27 0)
(2.9 -1.38839e-27 0)
(2.9 -2.12265e-28 0)
(2.9 -3.1819e-29 0)
(2.9 -4.68395e-30 0)
(2.9 -6.78046e-31 0)
(2.9 -9.66405e-32 0)
(2.9 -1.35765e-32 0)
(2.9 -1.88181e-33 0)
(2.9 -2.57577e-34 0)
(2.9 -3.48439e-35 0)
(2.9 -4.6618e-36 0)
(2.9 -6.17267e-37 0)
(2.9 -8.0937e-38 0)
(2.9 -1.05152e-38 0)
(2.9 -1.35425e-39 0)
(2.9 -1.72981e-40 0)
(2.9 -2.19231e-41 0)
(2.9 -2.75792e-42 0)
(2.9 -3.44504e-43 0)
(2.9 -4.27455e-44 0)
(2.9 -5.26996e-45 0)
(2.9 -6.45762e-46 0)
(2.9 -7.86692e-47 0)
(2.9 -9.53051e-48 0)
(2.9 -1.14845e-48 0)
(2.9 -1.37685e-49 0)
(2.9 -1.64261e-50 0)
(2.9 -1.95056e-51 0)
(2.9 -2.61226e-52 0)
(2.9 5.89707e-18 0)
(2.9 1.50057e-17 0)
(2.9 1.2971e-17 0)
(2.9 7.25243e-18 0)
(2.9 3.10471e-18 0)
(2.9 1.10175e-18 0)
(2.9 3.39371e-19 0)
(2.9 9.3489e-20 0)
(2.9 2.35156e-20 0)
(2.9 5.48336e-21 0)
(2.9 1.19899e-21 0)
(2.9 2.48057e-22 0)
(2.9 -7.36492e-18 0)
(2.9 -2.23168e-17 0)
(2.9 -2.6039e-17 0)
(2.9 -1.82897e-17 0)
(2.9 -9.31139e-18 0)
(2.9 -3.7838e-18 0)
(2.9 -1.29959e-18 0)
(2.9 -3.91529e-19 0)
(2.9 -1.06149e-19 0)
(2.9 -2.63819e-20 0)
(2.9 -6.09465e-21 0)
(2.9 -1.32278e-21 0)
(2.9 -2.72012e-22 0)
(2.9 -5.33571e-23 0)
(2.9 -1.00395e-23 0)
(2.9 -1.8203e-24 0)
(2.9 -3.19276e-25 0)
(2.9 -5.43501e-26 0)
(2.9 -9.00461e-27 0)
(2.9 -1.45549e-27 0)
(2.9 -2.30013e-28 0)
(2.9 -3.56032e-29 0)
(2.9 -5.40663e-30 0)
(2.9 -8.06659e-31 0)
(2.9 -1.18395e-31 0)
(2.9 -1.71142e-32 0)
(2.9 -2.43895e-33 0)
(2.9 -3.42986e-34 0)
(2.9 -4.76365e-35 0)
(2.9 -6.53918e-36 0)
(2.9 -8.87827e-37 0)
(2.9 -1.19297e-37 0)
(2.9 -1.58737e-38 0)
(2.9 -2.09269e-39 0)
(2.9 -2.73479e-40 0)
(2.9 -3.5443e-41 0)
(2.9 -4.55727e-42 0)
(2.9 -5.8159e-43 0)
(2.9 -7.36921e-44 0)
(2.9 -9.27391e-45 0)
(2.9 -1.15952e-45 0)
(2.9 -1.44076e-46 0)
(2.9 -1.77959e-47 0)
(2.9 -2.18563e-48 0)
(2.9 -2.66971e-49 0)
(2.9 -3.24398e-50 0)
(2.9 -3.92219e-51 0)
(2.9 -5.35893e-52 0)
(2.9 2.43339e-18 0)
(2.9 6.73074e-18 0)
(2.9 6.22074e-18 0)
(2.9 3.70453e-18 0)
(2.9 1.68358e-18 0)
(2.9 6.32319e-19 0)
(2.9 2.05562e-19 0)
(2.9 5.96093e-20 0)
(2.9 1.57456e-20 0)
(2.9 3.84719e-21 0)
(2.9 8.79699e-22 0)
(2.9 1.8997e-22 0)
(2.9 -3.18098e-18 0)
(2.9 -9.94058e-18 0)
(2.9 -1.21541e-17 0)
(2.9 -9.01297e-18 0)
(2.9 -4.85278e-18 0)
(2.9 -2.08421e-18 0)
(2.9 -7.55381e-19 0)
(2.9 -2.39673e-19 0)
(2.9 -6.8294e-20 0)
(2.9 -1.78034e-20 0)
(2.9 -4.30565e-21 0)
(2.9 -9.76511e-22 0)
(2.9 -2.09473e-22 0)
(2.9 -4.27946e-23 0)
(2.9 -8.37359e-24 0)
(2.9 -1.57666e-24 0)
(2.9 -2.86804e-25 0)
(2.9 -5.05721e-26 0)
(2.9 -8.66897e-27 0)
(2.9 -1.44823e-27 0)
(2.9 -2.36298e-28 0)
(2.9 -3.7728e-29 0)
(2.9 -5.90441e-30 0)
(2.9 -9.07079e-31 0)
(2.9 -1.36976e-31 0)
(2.9 -2.0356e-32 0)
(2.9 -2.98022e-33 0)
(2.9 -4.30261e-34 0)
(2.9 -6.13088e-35 0)
(2.9 -8.62907e-36 0)
(2.9 -1.20052e-36 0)
(2.9 -1.65205e-37 0)
(2.9 -2.25005e-38 0)
(2.9 -3.03469e-39 0)
(2.9 -4.0552e-40 0)
(2.9 -5.37147e-41 0)
(2.9 -7.05578e-42 0)
(2.9 -9.19484e-43 0)
(2.9 -1.1892e-43 0)
(2.9 -1.52696e-44 0)
(2.9 -1.94718e-45 0)
(2.9 -2.46672e-46 0)
(2.9 -3.10524e-47 0)
(2.9 -3.8855e-48 0)
(2.9 -4.83375e-49 0)
(2.9 -5.9801e-50 0)
(2.9 -7.35929e-51 0)
(2.9 -1.02549e-51 0)
(2.9 9.98645e-19 0)
(2.9 2.99531e-18 0)
(2.9 2.94799e-18 0)
(2.9 1.86252e-18 0)
(2.9 8.95389e-19 0)
(2.9 3.54773e-19 0)
(2.9 1.21367e-19 0)
(2.9 3.69494e-20 0)
(2.9 1.02247e-20 0)
(2.9 2.61203e-21 0)
(2.9 6.23325e-22 0)
(2.9 1.40241e-22 0)
(2.9 -1.36539e-18 0)
(2.9 -4.39636e-18 0)
(2.9 -5.62095e-18 0)
(2.9 -4.38609e-18 0)
(2.9 -2.48872e-18 0)
(2.9 -1.12587e-18 0)
(2.9 -4.29227e-19 0)
(2.9 -1.43016e-19 0)
(2.9 -4.2718e-20 0)
(2.9 -1.16525e-20 0)
(2.9 -2.9437e-21 0)
(2.9 -6.96232e-22 0)
(2.9 -1.55508e-22 0)
(2.9 -3.30312e-23 0)
(2.9 -6.71062e-24 0)
(2.9 -1.31022e-24 0)
(2.9 -2.46843e-25 0)
(2.9 -4.50281e-26 0)
(2.9 -7.97651e-27 0)
(2.9 -1.37568e-27 0)
(2.9 -2.31507e-28 0)
(2.9 -3.80893e-29 0)
(2.9 -6.13741e-30 0)
(2.9 -9.70006e-31 0)
(2.9 -1.50579e-31 0)
(2.9 -2.29875e-32 0)
(2.9 -3.45485e-33 0)
(2.9 -5.11698e-34 0)
(2.9 -7.47542e-35 0)
(2.9 -1.07808e-35 0)
(2.9 -1.53598e-36 0)
(2.9 -2.16341e-37 0)
(2.9 -3.01425e-38 0)
(2.9 -4.15681e-39 0)
(2.9 -5.67693e-40 0)
(2.9 -7.68161e-41 0)
(2.9 -1.03032e-41 0)
(2.9 -1.37044e-42 0)
(2.9 -1.80836e-43 0)
(2.9 -2.36813e-44 0)
(2.9 -3.0787e-45 0)
(2.9 -3.97477e-46 0)
(2.9 -5.09763e-47 0)
(2.9 -6.49615e-48 0)
(2.9 -8.22791e-49 0)
(2.9 -1.03604e-49 0)
(2.9 -1.29729e-50 0)
(2.9 -1.84308e-51 0)
(2.9 4.07975e-19 0)
(2.9 1.32372e-18 0)
(2.9 1.38245e-18 0)
(2.9 9.23484e-19 0)
(2.9 4.68148e-19 0)
(2.9 1.95125e-19 0)
(2.9 7.00607e-20 0)
(2.9 2.23399e-20 0)
(2.9 6.46224e-21 0)
(2.9 1.7226e-21 0)
(2.9 4.28223e-22 0)
(2.9 1.00209e-22 0)
(2.9 -5.82955e-19 0)
(2.9 -1.93232e-18 0)
(2.9 -2.57834e-18 0)
(2.9 -2.1109e-18 0)
(2.9 -1.25836e-18 0)
(2.9 -5.97836e-19 0)
(2.9 -2.39082e-19 0)
(2.9 -8.34394e-20 0)
(2.9 -2.60638e-20 0)
(2.9 -7.42327e-21 0)
(2.9 -1.95498e-21 0)
(2.9 -4.81313e-22 0)
(2.9 -1.11748e-22 0)
(2.9 -2.46399e-23 0)
(2.9 -5.18991e-24 0)
(2.9 -1.04932e-24 0)
(2.9 -2.04486e-25 0)
(2.9 -3.85433e-26 0)
(2.9 -7.04802e-27 0)
(2.9 -1.25358e-27 0)
(2.9 -2.17369e-28 0)
(2.9 -3.68187e-29 0)
(2.9 -6.10292e-30 0)
(2.9 -9.91489e-31 0)
(2.9 -1.58099e-31 0)
(2.9 -2.47747e-32 0)
(2.9 -3.81963e-33 0)
(2.9 -5.79979e-34 0)
(2.9 -8.68131e-35 0)
(2.9 -1.28206e-35 0)
(2.9 -1.86947e-36 0)
(2.9 -2.69354e-37 0)
(2.9 -3.83712e-38 0)
(2.9 -5.40782e-39 0)
(2.9 -7.54424e-40 0)
(2.9 -1.04233e-40 0)
(2.9 -1.42692e-41 0)
(2.9 -1.93635e-42 0)
(2.9 -2.6058e-43 0)
(2.9 -3.47881e-44 0)
(2.9 -4.60904e-45 0)
(2.9 -6.06209e-46 0)
(2.9 -7.91773e-47 0)
(2.9 -1.02724e-47 0)
(2.9 -1.32421e-48 0)
(2.9 -1.69653e-49 0)
(2.9 -2.16083e-50 0)
(2.9 -3.129e-51 0)
(2.9 1.66033e-19 0)
(2.9 5.81382e-19 0)
(2.9 6.42288e-19 0)
(2.9 4.5228e-19 0)
(2.9 2.41098e-19 0)
(2.9 1.05439e-19 0)
(2.9 3.9642e-20 0)
(2.9 1.32108e-20 0)
(2.9 3.98688e-21 0)
(2.9 1.10693e-21 0)
(2.9 2.86172e-22 0)
(2.9 6.95452e-23 0)
(2.9 -2.47742e-19 0)
(2.9 -8.44694e-19 0)
(2.9 -1.17406e-18 0)
(2.9 -1.00592e-18 0)
(2.9 -6.2829e-19 0)
(2.9 -3.12652e-19 0)
(2.9 -1.30833e-19 0)
(2.9 -4.77165e-20 0)
(2.9 -1.55544e-20 0)
(2.9 -4.61641e-21 0)
(2.9 -1.26514e-21 0)
(2.9 -3.23684e-22 0)
(2.9 -7.79953e-23 0)
(2.9 -1.78268e-23 0)
(2.9 -3.88768e-24 0)
(2.9 -8.12941e-25 0)
(2.9 -1.63676e-25 0)
(2.9 -3.18429e-26 0)
(2.9 -6.00441e-27 0)
(2.9 -1.10031e-27 0)
(2.9 -1.96407e-28 0)
(2.9 -3.42202e-29 0)
(2.9 -5.83018e-30 0)
(2.9 -9.72867e-31 0)
(2.9 -1.59229e-31 0)
(2.9 -2.55948e-32 0)
(2.9 -4.04527e-33 0)
(2.9 -6.29314e-34 0)
(2.9 -9.64556e-35 0)
(2.9 -1.45783e-35 0)
(2.9 -2.17446e-36 0)
(2.9 -3.20315e-37 0)
(2.9 -4.66312e-38 0)
(2.9 -6.71301e-39 0)
(2.9 -9.56196e-40 0)
(2.9 -1.34832e-40 0)
(2.9 -1.88309e-41 0)
(2.9 -2.606e-42 0)
(2.9 -3.57509e-43 0)
(2.9 -4.86386e-44 0)
(2.9 -6.56469e-45 0)
(2.9 -8.79299e-46 0)
(2.9 -1.1692e-46 0)
(2.9 -1.54382e-47 0)
(2.9 -2.02484e-48 0)
(2.9 -2.63864e-49 0)
(2.9 -3.41746e-50 0)
(2.9 -5.04244e-51 0)
(2.9 6.7352e-20 0)
(2.9 2.53938e-19 0)
(2.9 2.95938e-19 0)
(2.9 2.19086e-19 0)
(2.9 1.22504e-19 0)
(2.9 5.60834e-20 0)
(2.9 2.20324e-20 0)
(2.9 7.65873e-21 0)
(2.9 2.40701e-21 0)
(2.9 6.9491e-22 0)
(2.9 1.86547e-22 0)
(2.9 4.70121e-23 0)
(2.9 -1.04856e-19 0)
(2.9 -3.67468e-19 0)
(2.9 -5.31107e-19 0)
(2.9 -4.75124e-19 0)
(2.9 -3.10185e-19 0)
(2.9 -1.61296e-19 0)
(2.9 -7.047e-20 0)
(2.9 -2.68031e-20 0)
(2.9 -9.10016e-21 0)
(2.9 -2.80946e-21 0)
(2.9 -7.99874e-22 0)
(2.9 -2.12342e-22 0)
(2.9 -5.30271e-23 0)
(2.9 -1.25466e-23 0)
(2.9 -2.82944e-24 0)
(2.9 -6.11199e-25 0)
(2.9 -1.27e-25 0)
(2.9 -2.54757e-26 0)
(2.9 -4.94884e-27 0)
(2.9 -9.3349e-28 0)
(2.9 -1.71385e-28 0)
(2.9 -3.06903e-29 0)
(2.9 -5.37024e-30 0)
(2.9 -9.19745e-31 0)
(2.9 -1.54405e-31 0)
(2.9 -2.5442e-32 0)
(2.9 -4.1196e-33 0)
(2.9 -6.56209e-34 0)
(2.9 -1.02929e-34 0)
(2.9 -1.59123e-35 0)
(2.9 -2.42651e-36 0)
(2.9 -3.65267e-37 0)
(2.9 -5.43147e-38 0)
(2.9 -7.98324e-39 0)
(2.9 -1.16052e-39 0)
(2.9 -1.66943e-40 0)
(2.9 -2.37766e-41 0)
(2.9 -3.35426e-42 0)
(2.9 -4.68922e-43 0)
(2.9 -6.49885e-44 0)
(2.9 -8.93243e-45 0)
(2.9 -1.21802e-45 0)
(2.9 -1.64828e-46 0)
(2.9 -2.21432e-47 0)
(2.9 -2.95398e-48 0)
(2.9 -3.91427e-49 0)
(2.9 -5.15363e-50 0)
(2.9 -7.74607e-51 0)
(2.9 2.72464e-20 0)
(2.9 1.10367e-19 0)
(2.9 1.35341e-19 0)
(2.9 1.05083e-19 0)
(2.9 6.14953e-20 0)
(2.9 2.94104e-20 0)
(2.9 1.20494e-20 0)
(2.9 4.36123e-21 0)
(2.9 1.42506e-21 0)
(2.9 4.27155e-22 0)
(2.9 1.189e-22 0)
(2.9 3.10318e-23 0)
(2.9 -4.42202e-20 0)
(2.9 -1.5917e-19 0)
(2.9 -2.38832e-19 0)
(2.9 -2.22626e-19 0)
(2.9 -1.51589e-19 0)
(2.9 -8.21977e-20 0)
(2.9 -3.74194e-20 0)
(2.9 -1.48146e-20 0)
(2.9 -5.22966e-21 0)
(2.9 -1.67671e-21 0)
(2.9 -4.95181e-22 0)
(2.9 -1.36205e-22 0)
(2.9 -3.52044e-23 0)
(2.9 -8.61215e-24 0)
(2.9 -2.00604e-24 0)
(2.9 -4.47162e-25 0)
(2.9 -9.57933e-26 0)
(2.9 -1.97942e-26 0)
(2.9 -3.95767e-27 0)
(2.9 -7.67778e-28 0)
(2.9 -1.44867e-28 0)
(2.9 -2.66417e-29 0)
(2.9 -4.78446e-30 0)
(2.9 -8.40442e-31 0)
(2.9 -1.44624e-31 0)
(2.9 -2.44128e-32 0)
(2.9 -4.04732e-33 0)
(2.9 -6.5974e-34 0)
(2.9 -1.05844e-34 0)
(2.9 -1.67282e-35 0)
(2.9 -2.60666e-36 0)
(2.9 -4.0078e-37 0)
(2.9 -6.08443e-38 0)
(2.9 -9.12664e-39 0)
(2.9 -1.35344e-39 0)
(2.9 -1.9854e-40 0)
(2.9 -2.88245e-41 0)
(2.9 -4.1437e-42 0)
(2.9 -5.90097e-43 0)
(2.9 -8.32813e-44 0)
(2.9 -1.16528e-44 0)
(2.9 -1.61708e-45 0)
(2.9 -2.22639e-46 0)
(2.9 -3.04211e-47 0)
(2.9 -4.12654e-48 0)
(2.9 -5.5585e-49 0)
(2.9 -7.43766e-50 0)
(2.9 -1.13846e-50 0)
(2.9 1.09963e-20 0)
(2.9 4.77542e-20 0)
(2.9 6.14789e-20 0)
(2.9 4.99554e-20 0)
(2.9 3.05337e-20 0)
(2.9 1.52262e-20 0)
(2.9 6.49425e-21 0)
(2.9 2.4435e-21 0)
(2.9 8.28866e-22 0)
(2.9 2.57587e-22 0)
(2.9 7.42478e-23 0)
(2.9 2.00439e-23 0)
(2.9 -1.85886e-20 0)
(2.9 -6.86778e-20 0)
(2.9 -1.06822e-19 0)
(2.9 -1.0356e-19 0)
(2.9 -7.34044e-20 0)
(2.9 -4.14261e-20 0)
(2.9 -1.96146e-20 0)
(2.9 -8.06938e-21 0)
(2.9 -2.95697e-21 0)
(2.9 -9.83089e-22 0)
(2.9 -3.00745e-22 0)
(2.9 -8.56001e-23 0)
(2.9 -2.2871e-23 0)
(2.9 -5.77815e-24 0)
(2.9 -1.38868e-24 0)
(2.9 -3.19102e-25 0)
(2.9 -7.04102e-26 0)
(2.9 -1.49735e-26 0)
(2.9 -3.07881e-27 0)
(2.9 -6.13787e-28 0)
(2.9 -1.18929e-28 0)
(2.9 -2.24457e-29 0)
(2.9 -4.1341e-30 0)
(2.9 -7.44342e-31 0)
(2.9 -1.31211e-31 0)
(2.9 -2.26765e-32 0)
(2.9 -3.84704e-33 0)
(2.9 -6.41376e-34 0)
(2.9 -1.05191e-34 0)
(2.9 -1.69876e-35 0)
(2.9 -2.70362e-36 0)
(2.9 -4.24386e-37 0)
(2.9 -6.57492e-38 0)
(2.9 -1.00606e-38 0)
(2.9 -1.52136e-39 0)
(2.9 -2.2749e-40 0)
(2.9 -3.36546e-41 0)
(2.9 -4.92824e-42 0)
(2.9 -7.14669e-43 0)
(2.9 -1.02676e-43 0)
(2.9 -1.46205e-44 0)
(2.9 -2.06416e-45 0)
(2.9 -2.89047e-46 0)
(2.9 -4.01585e-47 0)
(2.9 -5.53743e-48 0)
(2.9 -7.58032e-49 0)
(2.9 -1.03054e-49 0)
(2.9 -1.60602e-50 0)
(2.9 4.42896e-21 0)
(2.9 2.0579e-20 0)
(2.9 2.77566e-20 0)
(2.9 2.35568e-20 0)
(2.9 1.50106e-20 0)
(2.9 7.79132e-21 0)
(2.9 3.45401e-21 0)
(2.9 1.34895e-21 0)
(2.9 4.74359e-22 0)
(2.9 1.5264e-22 0)
(2.9 4.55055e-23 0)
(2.9 1.26923e-23 0)
(2.9 -7.79128e-21 0)
(2.9 -2.95284e-20 0)
(2.9 -4.75436e-20 0)
(2.9 -4.78562e-20 0)
(2.9 -3.52482e-20 0)
(2.9 -2.0668e-20 0)
(2.9 -1.01614e-20 0)
(2.9 -4.33713e-21 0)
(2.9 -1.64738e-21 0)
(2.9 -5.67154e-22 0)
(2.9 -1.79491e-22 0)
(2.9 -5.28007e-23 0)
(2.9 -1.45668e-23 0)
(2.9 -3.79657e-24 0)
(2.9 -9.40491e-25 0)
(2.9 -2.22572e-25 0)
(2.9 -5.05385e-26 0)
(2.9 -1.10517e-26 0)
(2.9 -2.33505e-27 0)
(2.9 -4.78013e-28 0)
(2.9 -9.50465e-29 0)
(2.9 -1.83964e-29 0)
(2.9 -3.47276e-30 0)
(2.9 -6.4049e-31 0)
(2.9 -1.1559e-31 0)
(2.9 -2.04413e-32 0)
(2.9 -3.54668e-33 0)
(2.9 -6.04455e-34 0)
(2.9 -1.01295e-34 0)
(2.9 -1.67072e-35 0)
(2.9 -2.71455e-36 0)
(2.9 -4.34825e-37 0)
(2.9 -6.87189e-38 0)
(2.9 -1.07221e-38 0)
(2.9 -1.65271e-39 0)
(2.9 -2.51816e-40 0)
(2.9 -3.79468e-41 0)
(2.9 -5.65838e-42 0)
(2.9 -8.35289e-43 0)
(2.9 -1.22124e-43 0)
(2.9 -1.76915e-44 0)
(2.9 -2.54035e-45 0)
(2.9 -3.61697e-46 0)
(2.9 -5.10819e-47 0)
(2.9 -7.15809e-48 0)
(2.9 -9.95558e-49 0)
(2.9 -1.37478e-49 0)
(2.9 -2.18078e-50 0)
(2.9 1.78075e-21 0)
(2.9 8.83572e-21 0)
(2.9 1.24618e-20 0)
(2.9 1.10266e-20 0)
(2.9 7.31265e-21 0)
(2.9 3.94457e-21 0)
(2.9 1.81486e-21 0)
(2.9 7.34691e-22 0)
(2.9 2.67481e-22 0)
(2.9 8.90124e-23 0)
(2.9 2.74149e-23 0)
(2.9 7.8918e-24 0)
(2.9 -3.25701e-21 0)
(2.9 -1.26553e-20 0)
(2.9 -2.10652e-20 0)
(2.9 -2.19812e-20 0)
(2.9 -1.67967e-20 0)
(2.9 -1.02167e-20 0)
(2.9 -5.20779e-21 0)
(2.9 -2.30287e-21 0)
(2.9 -9.05433e-22 0)
(2.9 -3.22382e-22 0)
(2.9 -1.05421e-22 0)
(2.9 -3.20151e-23 0)
(2.9 -9.11031e-24 0)
(2.9 -2.44709e-24 0)
(2.9 -6.24239e-25 0)
(2.9 -1.52009e-25 0)
(2.9 -3.54897e-26 0)
(2.9 -7.97413e-27 0)
(2.9 -1.72992e-27 0)
(2.9 -3.63386e-28 0)
(2.9 -7.40958e-29 0)
(2.9 -1.46981e-29 0)
(2.9 -2.84203e-30 0)
(2.9 -5.36606e-31 0)
(2.9 -9.90895e-32 0)
(2.9 -1.7921e-32 0)
(2.9 -3.17846e-33 0)
(2.9 -5.53478e-34 0)
(2.9 -9.47269e-35 0)
(2.9 -1.59499e-35 0)
(2.9 -2.64448e-36 0)
(2.9 -4.32094e-37 0)
(2.9 -6.963e-38 0)
(2.9 -1.10738e-38 0)
(2.9 -1.73925e-39 0)
(2.9 -2.6993e-40 0)
(2.9 -4.14192e-41 0)
(2.9 -6.28695e-42 0)
(2.9 -9.44443e-43 0)
(2.9 -1.40476e-43 0)
(2.9 -2.06969e-44 0)
(2.9 -3.02173e-45 0)
(2.9 -4.37332e-46 0)
(2.9 -6.2766e-47 0)
(2.9 -8.9359e-48 0)
(2.9 -1.26237e-48 0)
(2.9 -1.77023e-49 0)
(2.9 -2.85759e-50 0)
(2.9 7.14911e-22 0)
(2.9 3.78096e-21 0)
(2.9 5.56643e-21 0)
(2.9 5.12664e-21 0)
(2.9 3.53296e-21 0)
(2.9 1.97762e-21 0)
(2.9 9.43023e-22 0)
(2.9 3.95198e-22 0)
(2.9 1.48785e-22 0)
(2.9 5.11472e-23 0)
(2.9 1.6257e-23 0)
(2.9 4.82515e-24 0)
(2.9 -1.35822e-21 0)
(2.9 -5.40787e-21 0)
(2.9 -9.29479e-21 0)
(2.9 -1.00404e-20 0)
(2.9 -7.94795e-21 0)
(2.9 -5.00768e-21 0)
(2.9 -2.64281e-21 0)
(2.9 -1.20913e-21 0)
(2.9 -4.91483e-22 0)
(2.9 -1.80766e-22 0)
(2.9 -6.10107e-23 0)
(2.9 -1.91075e-23 0)
(2.9 -5.60281e-24 0)
(2.9 -1.54954e-24 0)
(2.9 -4.06687e-25 0)
(2.9 -1.01816e-25 0)
(2.9 -2.44223e-26 0)
(2.9 -5.63397e-27 0)
(2.9 -1.25408e-27 0)
(2.9 -2.70129e-28 0)
(2.9 -5.64473e-29 0)
(2.9 -1.14687e-29 0)
(2.9 -2.27013e-30 0)
(2.9 -4.38555e-31 0)
(2.9 -8.28184e-32 0)
(2.9 -1.53104e-32 0)
(2.9 -2.77439e-33 0)
(2.9 -4.93387e-34 0)
(2.9 -8.62013e-35 0)
(2.9 -1.48107e-35 0)
(2.9 -2.50477e-36 0)
(2.9 -4.17302e-37 0)
(2.9 -6.85421e-38 0)
(2.9 -1.1107e-38 0)
(2.9 -1.77686e-39 0)
(2.9 -2.80795e-40 0)
(2.9 -4.38586e-41 0)
(2.9 -6.77447e-42 0)
(2.9 -1.0353e-42 0)
(2.9 -1.56612e-43 0)
(2.9 -2.34606e-44 0)
(2.9 -3.48166e-45 0)
(2.9 -5.12067e-46 0)
(2.9 -7.46651e-47 0)
(2.9 -1.0797e-47 0)
(2.9 -1.54889e-48 0)
(2.9 -2.20515e-49 0)
(2.9 -3.62157e-50 0)
(2.9 2.8664e-22 0)
(2.9 1.61297e-21 0)
(2.9 2.47476e-21 0)
(2.9 2.36877e-21 0)
(2.9 1.69386e-21 0)
(2.9 9.82592e-22 0)
(2.9 4.84997e-22 0)
(2.9 2.10158e-22 0)
(2.9 8.17258e-23 0)
(2.9 2.89916e-23 0)
(2.9 9.50044e-24 0)
(2.9 2.90462e-24 0)
(2.9 -5.65111e-22 0)
(2.9 -2.30467e-21 0)
(2.9 -4.08558e-21 0)
(2.9 -4.56265e-21 0)
(2.9 -3.73654e-21 0)
(2.9 -2.43538e-21 0)
(2.9 -1.329e-21 0)
(2.9 -6.28327e-22 0)
(2.9 -2.63735e-22 0)
(2.9 -1.0009e-22 0)
(2.9 -3.48306e-23 0)
(2.9 -1.12384e-23 0)
(2.9 -3.39255e-24 0)
(2.9 -9.65217e-25 0)
(2.9 -2.6042e-25 0)
(2.9 -6.69774e-26 0)
(2.9 -1.64934e-26 0)
(2.9 -3.90369e-27 0)
(2.9 -8.90967e-28 0)
(2.9 -1.96666e-28 0)
(2.9 -4.20903e-29 0)
(2.9 -8.75395e-30 0)
(2.9 -1.77283e-30 0)
(2.9 -3.5023e-31 0)
(2.9 -6.76028e-32 0)
(2.9 -1.27684e-32 0)
(2.9 -2.36287e-33 0)
(2.9 -4.28944e-34 0)
(2.9 -7.64702e-35 0)
(2.9 -1.34014e-35 0)
(2.9 -2.31088e-36 0)
(2.9 -3.92409e-37 0)
(2.9 -6.56709e-38 0)
(2.9 -1.08391e-38 0)
(2.9 -1.76559e-39 0)
(2.9 -2.84009e-40 0)
(2.9 -4.5141e-41 0)
(2.9 -7.09314e-42 0)
(2.9 -1.10244e-42 0)
(2.9 -1.69558e-43 0)
(2.9 -2.5818e-44 0)
(2.9 -3.89356e-45 0)
(2.9 -5.8178e-46 0)
(2.9 -8.61617e-47 0)
(2.9 -1.26521e-47 0)
(2.9 -1.84266e-48 0)
(2.9 -2.66277e-49 0)
(2.9 -4.44821e-50 0)
(2.9 1.14797e-22 0)
(2.9 6.86164e-22 0)
(2.9 1.0955e-21 0)
(2.9 1.08823e-21 0)
(2.9 8.06399e-22 0)
(2.9 4.84164e-22 0)
(2.9 2.47077e-22 0)
(2.9 1.10579e-22 0)
(2.9 4.43711e-23 0)
(2.9 1.62269e-23 0)
(2.9 5.47716e-24 0)
(2.9 1.72344e-24 0)
(2.9 -2.3462e-22 0)
(2.9 -9.79728e-22 0)
(2.9 -1.7895e-21 0)
(2.9 -2.06358e-21 0)
(2.9 -1.74614e-21 0)
(2.9 -1.17586e-21 0)
(2.9 -6.6271e-22 0)
(2.9 -3.23406e-22 0)
(2.9 -1.40025e-22 0)
(2.9 -5.4777e-23 0)
(2.9 -1.96348e-23 0)
(2.9 -6.52104e-24 0)
(2.9 -2.02478e-24 0)
(2.9 -5.92132e-25 0)