/*--------------------------------*- C++ -*----------------------------------*\
| =========                 |                                                 |
| \\      /  F ield         | OpenFOAM: The Open Source CFD Toolbox           |
|  \\    /   O peration     | Version:  2412                                  |
|   \\  /    A nd           | Website:  www.openfoam.com                      |
|    \\/     M anipulation  |                                                 |
\*---------------------------------------------------------------------------*/
FoamFile
{
    version     2.0;
    format      ascii;
    arch        "LSB;label=32;scalar=64";
    class       volVectorField;
    location    "0.0025";
    object      U;
}
// * * * * * * * * * * * * * * * * * * * * * * * * * * * * * * * * * * * * * //

dimensions      [0 1 -1 0 0 0 0];

internalField   nonuniform List<vector> 
1800
(
(2.9 1.86267e-14 0)
(2.9 3.53421e-14 0)
(2.9 3.32031e-15 0)
(2.9 3.29559e-16 0)
(2.9 3.36059e-17 0)
(2.9 3.43769e-18 0)
(2.9 3.49122e-19 0)
(2.9 3.50838e-20 0)
(2.9 3.48815e-21 0)
(2.9 3.43497e-22 0)
(2.9 3.35523e-23 0)
(2.9 3.25556e-24 0)
(2.9 -1.20728e-14 0)
(2.9 -2.36742e-14 0)
(2.9 -3.60504e-14 0)
(2.9 -3.40876e-15 0)
(2.9 -3.39774e-16 0)
(2.9 -3.47243e-17 0)
(2.9 -3.55562e-18 0)
(2.9 -3.61225e-19 0)
(2.9 -3.63015e-20 0)
(2.9 -3.60887e-21 0)
(2.9 -3.55332e-22 0)
(2.9 -3.47029e-23 0)
(2.9 -3.36671e-24 0)
(2.9 -3.24876e-25 0)
(2.9 -3.12163e-26 0)
(2.9 -2.98942e-27 0)
(2.9 -2.85531e-28 0)
(2.9 -2.72165e-29 0)
(2.9 -2.59016e-30 0)
(2.9 -2.46203e-31 0)
(2.9 -2.33804e-32 0)
(2.9 -2.21872e-33 0)
(2.9 -2.10435e-34 0)
(2.9 -1.99504e-35 0)
(2.9 -1.89082e-36 0)
(2.9 -1.79163e-37 0)
(2.9 -1.69733e-38 0)
(2.9 -1.60779e-39 0)
(2.9 -1.52281e-40 0)
(2.9 -1.44222e-41 0)
(2.9 -1.36582e-42 0)
(2.9 -1.29341e-43 0)
(2.9 -1.2248e-44 0)
(2.9 -1.1598e-45 0)
(2.9 -1.09823e-46 0)
(2.9 -1.03992e-47 0)
(2.9 -9.84698e-49 0)
(2.9 -9.324e-50 0)
(2.9 -8.82874e-51 0)
(2.9 -8.35977e-52 0)
(2.9 -7.91568e-53 0)
(2.9 -7.49516e-54 0)
(2.9 -7.09698e-55 0)
(2.9 -6.71994e-56 0)
(2.9 -6.36292e-57 0)
(2.9 -6.02487e-58 0)
(2.9 -5.70478e-59 0)
(2.9 -5.96666e-60 0)
(2.9 1.66328e-14 0)
(2.9 2.01375e-14 0)
(2.9 4.14973e-15 0)
(2.9 6.69562e-16 0)
(2.9 9.68246e-17 0)
(2.9 1.30808e-17 0)
(2.9 1.68315e-18 0)
(2.9 2.08635e-19 0)
(2.9 2.51041e-20 0)
(2.9 2.94843e-21 0)
(2.9 3.39413e-22 0)
(2.9 3.84194e-23 0)
(2.9 -1.15197e-14 0)
(2.9 -2.3881e-14 0)
(2.9 -2.15531e-14 0)
(2.9 -4.38386e-15 0)
(2.9 -7.04289e-16 0)
(2.9 -1.01599e-16 0)
(2.9 -1.37019e-17 0)
(2.9 -1.76062e-18 0)
(2.9 -2.17988e-19 0)
(2.9 -2.62042e-20 0)
(2.9 -3.07509e-21 0)
(2.9 -3.53742e-22 0)
(2.9 -4.00168e-23 0)
(2.9 -4.46292e-24 0)
(2.9 -4.91689e-25 0)
(2.9 -5.36004e-26 0)
(2.9 -5.78941e-27 0)
(2.9 -6.20255e-28 0)
(2.9 -6.5975e-29 0)
(2.9 -6.97272e-30 0)
(2.9 -7.327e-31 0)
(2.9 -7.65948e-32 0)
(2.9 -7.96955e-33 0)
(2.9 -8.25684e-34 0)
(2.9 -8.52119e-35 0)
(2.9 -8.76261e-36 0)
(2.9 -8.98127e-37 0)
(2.9 -9.17747e-38 0)
(2.9 -9.35161e-39 0)
(2.9 -9.50421e-40 0)
(2.9 -9.63584e-41 0)
(2.9 -9.74715e-42 0)
(2.9 -9.83883e-43 0)
(2.9 -9.91163e-44 0)
(2.9 -9.96631e-45 0)
(2.9 -1.00037e-45 0)
(2.9 -1.00245e-46 0)
(2.9 -1.00297e-47 0)
(2.9 -1.002e-48 0)
(2.9 -9.99625e-50 0)
(2.9 -9.95929e-51 0)
(2.9 -9.9099e-52 0)
(2.9 -9.84888e-53 0)
(2.9 -9.77701e-54 0)
(2.9 -9.69506e-55 0)
(2.9 -9.60375e-56 0)
(2.9 -9.50387e-57 0)
(2.9 -1.04251e-57 0)
(2.9 9.87507e-15 0)
(2.9 1.11354e-14 0)
(2.9 3.27953e-15 0)
(2.9 6.89198e-16 0)
(2.9 1.22394e-16 0)
(2.9 1.95687e-17 0)
(2.9 2.907e-18 0)
(2.9 4.08714e-19 0)
(2.9 5.50415e-20 0)
(2.9 7.1594e-21 0)
(2.9 9.04947e-22 0)
(2.9 1.11669e-22 0)
(2.9 -7.25626e-15 0)
(2.9 -1.5763e-14 0)
(2.9 -1.25651e-14 0)
(2.9 -3.56314e-15 0)
(2.9 -7.38466e-16 0)
(2.9 -1.30187e-16 0)
(2.9 -2.07187e-17 0)
(2.9 -3.06783e-18 0)
(2.9 -4.30275e-19 0)
(2.9 -5.7834e-20 0)
(2.9 -7.51097e-21 0)
(2.9 -9.48165e-22 0)
(2.9 -1.16875e-22 0)
(2.9 -1.4117e-23 0)
(2.9 -1.67559e-24 0)
(2.9 -1.95878e-25 0)
(2.9 -2.25946e-26 0)
(2.9 -2.57572e-27 0)
(2.9 -2.90554e-28 0)
(2.9 -3.24691e-29 0)
(2.9 -3.59778e-30 0)
(2.9 -3.95613e-31 0)
(2.9 -4.31998e-32 0)
(2.9 -4.6874e-33 0)
(2.9 -5.05654e-34 0)
(2.9 -5.42563e-35 0)
(2.9 -5.79299e-36 0)
(2.9 -6.15704e-37 0)
(2.9 -6.51632e-38 0)
(2.9 -6.86943e-39 0)
(2.9 -7.21514e-40 0)
(2.9 -7.55227e-41 0)
(2.9 -7.87978e-42 0)
(2.9 -8.19673e-43 0)
(2.9 -8.50228e-44 0)
(2.9 -8.7957e-45 0)
(2.9 -9.07633e-46 0)
(2.9 -9.34364e-47 0)
(2.9 -9.59716e-48 0)
(2.9 -9.83652e-49 0)
(2.9 -1.00614e-49 0)
(2.9 -1.02717e-50 0)
(2.9 -1.04671e-51 0)
(2.9 -1.06476e-52 0)
(2.9 -1.08132e-53 0)
(2.9 -1.09639e-54 0)
(2.9 -1.11e-55 0)
(2.9 -1.248e-56 0)
(2.9 5.08979e-15 0)
(2.9 5.93878e-15 0)
(2.9 2.19282e-15 0)
(2.9 5.57359e-16 0)
(2.9 1.16029e-16 0)
(2.9 2.12551e-17 0)
(2.9 3.55727e-18 0)
(2.9 5.56267e-19 0)
(2.9 8.24796e-20 0)
(2.9 1.17154e-20 0)
(2.9 1.60606e-21 0)
(2.9 2.13704e-22 0)
(2.9 -3.9508e-15 0)
(2.9 -8.96492e-15 0)
(2.9 -7.06157e-15 0)
(2.9 -2.4516e-15 0)
(2.9 -6.08639e-16 0)
(2.9 -1.25153e-16 0)
(2.9 -2.27528e-17 0)
(2.9 -3.78817e-18 0)
(2.9 -5.90123e-19 0)
(2.9 -8.72445e-20 0)
(2.9 -1.23635e-20 0)
(2.9 -1.69171e-21 0)
(2.9 -2.24747e-22 0)
(2.9 -2.9115e-23 0)
(2.9 -3.69048e-24 0)
(2.9 -4.58982e-25 0)
(2.9 -5.61363e-26 0)
(2.9 -6.7647e-27 0)
(2.9 -8.04456e-28 0)
(2.9 -9.45344e-29 0)
(2.9 -1.09904e-29 0)
(2.9 -1.26534e-30 0)
(2.9 -1.44393e-31 0)
(2.9 -1.63441e-32 0)
(2.9 -1.83628e-33 0)
(2.9 -2.04896e-34 0)
(2.9 -2.27181e-35 0)
(2.9 -2.50414e-36 0)
(2.9 -2.74519e-37 0)
(2.9 -2.99416e-38 0)
(2.9 -3.25022e-39 0)
(2.9 -3.51253e-40 0)
(2.9 -3.78021e-41 0)
(2.9 -4.05238e-42 0)
(2.9 -4.32816e-43 0)
(2.9 -4.60665e-44 0)
(2.9 -4.88699e-45 0)
(2.9 -5.1683e-46 0)
(2.9 -5.44974e-47 0)
(2.9 -5.73049e-48 0)
(2.9 -6.00975e-49 0)
(2.9 -6.28674e-50 0)
(2.9 -6.56072e-51 0)
(2.9 -6.83099e-52 0)
(2.9 -7.09686e-53 0)
(2.9 -7.35772e-54 0)
(2.9 -7.61304e-55 0)
(2.9 -8.76446e-56 0)
(2.9 2.46514e-15 0)
(2.9 3.06534e-15 0)
(2.9 1.33672e-15 0)
(2.9 3.94858e-16 0)
(2.9 9.37519e-17 0)
(2.9 1.92877e-17 0)
(2.9 3.58108e-18 0)
(2.9 6.1516e-19 0)
(2.9 9.93961e-20 0)
(2.9 1.52824e-20 0)
(2.9 2.255e-21 0)
(2.9 3.21389e-22 0)
(2.9 -1.99525e-15 0)
(2.9 -4.71886e-15 0)
(2.9 -3.83051e-15 0)
(2.9 -1.53786e-15 0)
(2.9 -4.39596e-16 0)
(2.9 -1.02584e-16 0)
(2.9 -2.08815e-17 0)
(2.9 -3.84915e-18 0)
(2.9 -6.57767e-19 0)
(2.9 -1.0586e-19 0)
(2.9 -1.62256e-20 0)
(2.9 -2.38813e-21 0)
(2.9 -3.39655e-22 0)
(2.9 -4.69103e-23 0)
(2.9 -6.31611e-24 0)
(2.9 -8.31689e-25 0)
(2.9 -1.07383e-25 0)
(2.9 -1.36246e-26 0)
(2.9 -1.70184e-27 0)
(2.9 -2.09604e-28 0)
(2.9 -2.54887e-29 0)
(2.9 -3.06384e-30 0)
(2.9 -3.64413e-31 0)
(2.9 -4.29253e-32 0)
(2.9 -5.01144e-33 0)
(2.9 -5.80284e-34 0)
(2.9 -6.66827e-35 0)
(2.9 -7.60882e-36 0)
(2.9 -8.62514e-37 0)
(2.9 -9.71743e-38 0)
(2.9 -1.08855e-38 0)
(2.9 -1.21285e-39 0)
(2.9 -1.34456e-40 0)
(2.9 -1.48351e-41 0)
(2.9 -1.62952e-42 0)
(2.9 -1.78237e-43 0)
(2.9 -1.94179e-44 0)
(2.9 -2.1075e-45 0)
(2.9 -2.27917e-46 0)
(2.9 -2.45646e-47 0)
(2.9 -2.63901e-48 0)
(2.9 -2.82641e-49 0)
(2.9 -3.01827e-50 0)
(2.9 -3.21414e-51 0)
(2.9 -3.41361e-52 0)
(2.9 -3.61622e-53 0)
(2.9 -3.82156e-54 0)
(2.9 -4.50195e-55 0)
(2.9 1.11275e-15 0)
(2.9 1.53412e-15 0)
(2.9 7.66163e-16 0)
(2.9 2.56599e-16 0)
(2.9 6.82087e-17 0)
(2.9 1.55361e-17 0)
(2.9 3.16386e-18 0)
(2.9 5.91498e-19 0)
(2.9 1.03336e-19 0)
(2.9 1.70833e-20 0)
(2.9 2.69736e-21 0)
(2.9 4.09656e-22 0)
(2.9 -9.62332e-16 0)
(2.9 -2.36784e-15 0)
(2.9 -2.01453e-15 0)
(2.9 -9.0732e-16 0)
(2.9 -2.91351e-16 0)
(2.9 -7.57373e-17 0)
(2.9 -1.70159e-17 0)
(2.9 -3.43328e-18 0)
(2.9 -6.37598e-19 0)
(2.9 -1.1083e-19 0)
(2.9 -1.825e-20 0)
(2.9 -2.87243e-21 0)
(2.9 -4.35106e-22 0)
(2.9 -6.37728e-23 0)
(2.9 -9.08321e-24 0)
(2.9 -1.26162e-24 0)
(2.9 -1.71381e-25 0)
(2.9 -2.28237e-26 0)
(2.9 -2.98601e-27 0)
(2.9 -3.84443e-28 0)
(2.9 -4.87818e-29 0)
(2.9 -6.1085e-30 0)
(2.9 -7.55704e-31 0)
(2.9 -9.24574e-32 0)
(2.9 -1.11966e-32 0)
(2.9 -1.34313e-33 0)
(2.9 -1.59713e-34 0)
(2.9 -1.88375e-35 0)
(2.9 -2.20499e-36 0)
(2.9 -2.56277e-37 0)
(2.9 -2.95889e-38 0)
(2.9 -3.39502e-39 0)
(2.9 -3.8727e-40 0)
(2.9 -4.3933e-41 0)
(2.9 -4.95806e-42 0)
(2.9 -5.568e-43 0)
(2.9 -6.22399e-44 0)
(2.9 -6.9267e-45 0)
(2.9 -7.67662e-46 0)
(2.9 -8.47403e-47 0)
(2.9 -9.31903e-48 0)
(2.9 -1.02115e-48 0)
(2.9 -1.11511e-49 0)
(2.9 -1.21375e-50 0)
(2.9 -1.31698e-51 0)
(2.9 -1.42472e-52 0)
(2.9 -1.5369e-53 0)
(2.9 -1.85166e-54 0)
(2.9 4.58397e-16 0)
(2.9 7.45801e-16 0)
(2.9 4.19607e-16 0)
(2.9 1.56731e-16 0)
(2.9 4.60211e-17 0)
(2.9 1.14803e-17 0)
(2.9 2.54163e-18 0)
(2.9 5.13309e-19 0)
(2.9 9.63479e-20 0)
(2.9 1.70324e-20 0)
(2.9 2.86396e-21 0)
(2.9 4.61525e-22 0)
(2.9 -4.49934e-16 0)
(2.9 -1.14993e-15 0)
(2.9 -1.03202e-15 0)
(2.9 -5.119e-16 0)
(2.9 -1.81579e-16 0)
(2.9 -5.18735e-17 0)
(2.9 -1.27238e-17 0)
(2.9 -2.78511e-18 0)
(2.9 -5.57908e-19 0)
(2.9 -1.04077e-19 0)
(2.9 -1.83108e-20 0)
(2.9 -3.06709e-21 0)
(2.9 -4.92699e-22 0)
(2.9 -7.63434e-23 0)
(2.9 -1.14631e-23 0)
(2.9 -1.67424e-24 0)
(2.9 -2.38602e-25 0)
(2.9 -3.32666e-26 0)
(2.9 -4.54763e-27 0)
(2.9 -6.107e-28 0)
(2.9 -8.06951e-29 0)
(2.9 -1.05065e-29 0)
(2.9 -1.34959e-30 0)
(2.9 -1.71217e-31 0)
(2.9 -2.14741e-32 0)
(2.9 -2.66488e-33 0)
(2.9 -3.27465e-34 0)
(2.9 -3.98726e-35 0)
(2.9 -4.81364e-36 0)
(2.9 -5.76506e-37 0)
(2.9 -6.85304e-38 0)
(2.9 -8.0893e-39 0)
(2.9 -9.48565e-40 0)
(2.9 -1.1054e-40 0)
(2.9 -1.28061e-41 0)
(2.9 -1.47536e-42 0)
(2.9 -1.69081e-43 0)
(2.9 -1.92807e-44 0)
(2.9 -2.18823e-45 0)
(2.9 -2.47233e-46 0)
(2.9 -2.78135e-47 0)
(2.9 -3.11623e-48 0)
(2.9 -3.47785e-49 0)
(2.9 -3.867e-50 0)
(2.9 -4.2844e-51 0)
(2.9 -4.73071e-52 0)
(2.9 -5.2066e-53 0)
(2.9 -6.41232e-54 0)
(2.9 1.99757e-16 0)
(2.9 3.55703e-16 0)
(2.9 2.21995e-16 0)
(2.9 9.13344e-17 0)
(2.9 2.93207e-17 0)
(2.9 7.94226e-18 0)
(2.9 1.89784e-18 0)
(2.9 4.11521e-19 0)
(2.9 8.25506e-20 0)
(2.9 1.55332e-20 0)
(2.9 2.77013e-21 0)
(2.9 4.71944e-22 0)
(2.9 -2.057e-16 0)
(2.9 -5.45284e-16 0)
(2.9 -5.17108e-16 0)
(2.9 -2.78994e-16 0)
(2.9 -1.07999e-16 0)
(2.9 -3.35586e-17 0)
(2.9 -8.90972e-18 0)
(2.9 -2.10046e-18 0)
(2.9 -4.51065e-19 0)
(2.9 -8.98266e-20 0)
(2.9 -1.68067e-20 0)
(2.9 -2.98366e-21 0)
(2.9 -5.06438e-22 0)
(2.9 -8.26875e-23 0)
(2.9 -1.305e-23 0)
(2.9 -1.99884e-24 0)
(2.9 -2.98115e-25 0)
(2.9 -4.34154e-26 0)
(2.9 -6.18851e-27 0)
(2.9 -8.65154e-28 0)
(2.9 -1.1883e-28 0)
(2.9 -1.60602e-29 0)
(2.9 -2.13866e-30 0)
(2.9 -2.8094e-31 0)
(2.9 -3.64432e-32 0)
(2.9 -4.67254e-33 0)
(2.9 -5.92629e-34 0)
(2.9 -7.44093e-35 0)
(2.9 -9.25503e-36 0)
(2.9 -1.14103e-36 0)
(2.9 -1.39515e-37 0)
(2.9 -1.69265e-38 0)
(2.9 -2.03862e-39 0)
(2.9 -2.4384e-40 0)
(2.9 -2.89762e-41 0)
(2.9 -3.42213e-42 0)
(2.9 -4.01803e-43 0)
(2.9 -4.69158e-44 0)
(2.9 -5.44924e-45 0)
(2.9 -6.29759e-46 0)
(2.9 -7.24332e-47 0)
(2.9 -8.29322e-48 0)
(2.9 -9.45409e-49 0)
(2.9 -1.07328e-49 0)
(2.9 -1.2136e-50 0)
(2.9 -1.36707e-51 0)
(2.9 -1.53437e-52 0)
(2.9 -1.93083e-53 0)
(2.9 8.55902e-17 0)
(2.9 1.66915e-16 0)
(2.9 1.1427e-16 0)
(2.9 5.12853e-17 0)
(2.9 1.78527e-17 0)
(2.9 5.21451e-18 0)
(2.9 1.33687e-18 0)
(2.9 3.09632e-19 0)
(2.9 6.60813e-20 0)
(2.9 1.31824e-20 0)
(2.9 2.48452e-21 0)
(2.9 4.46085e-22 0)
(2.9 -9.24616e-17 0)
(2.9 -2.53888e-16 0)
(2.9 -2.54286e-16 0)
(2.9 -1.47892e-16 0)
(2.9 -6.1902e-17 0)
(2.9 -2.0752e-17 0)
(2.9 -5.92208e-18 0)
(2.9 -1.49467e-18 0)
(2.9 -3.42311e-19 0)
(2.9 -7.24419e-20 0)
(2.9 -1.43567e-20 0)
(2.9 -2.6917e-21 0)
(2.9 -4.81215e-22 0)
(2.9 -8.25516e-23 0)
(2.9 -1.36584e-23 0)
(2.9 -2.18868e-24 0)
(2.9 -3.40871e-25 0)
(2.9 -5.17489e-26 0)
(2.9 -7.67716e-27 0)
(2.9 -1.11538e-27 0)
(2.9 -1.58992e-28 0)
(2.9 -2.2272e-29 0)
(2.9 -3.07039e-30 0)
(2.9 -4.17082e-31 0)
(2.9 -5.58888e-32 0)
(2.9 -7.39492e-33 0)
(2.9 -9.67012e-34 0)
(2.9 -1.25073e-34 0)
(2.9 -1.60119e-35 0)
(2.9 -2.03025e-36 0)
(2.9 -2.55118e-37 0)
(2.9 -3.17869e-38 0)
(2.9 -3.92903e-39 0)
(2.9 -4.82e-40 0)
(2.9 -5.87099e-41 0)
(2.9 -7.10305e-42 0)
(2.9 -8.53883e-43 0)
(2.9 -1.02026e-43 0)
(2.9 -1.21204e-44 0)
(2.9 -1.43197e-45 0)
(2.9 -1.68296e-46 0)
(2.9 -1.96808e-47 0)
(2.9 -2.29053e-48 0)
(2.9 -2.65367e-49 0)
(2.9 -3.06098e-50 0)
(2.9 -3.51606e-51 0)
(2.9 -4.02274e-52 0)
(2.9 -5.1702e-53 0)
(2.9 3.62021e-17 0)
(2.9 7.72464e-17 0)
(2.9 5.75157e-17 0)
(2.9 2.79416e-17 0)
(2.9 1.04763e-17 0)
(2.9 3.28047e-18 0)
(2.9 8.97797e-19 0)
(2.9 2.21125e-19 0)
(2.9 5.00124e-20 0)
(2.9 1.05405e-20 0)
(2.9 2.09299e-21 0)
(2.9 3.94918e-22 0)
(2.9 -4.10141e-17 0)
(2.9 -1.16513e-16 0)
(2.9 -1.23057e-16 0)
(2.9 -7.662e-17 0)
(2.9 -3.44255e-17 0)
(2.9 -1.23692e-17 0)
(2.9 -3.77225e-18 0)
(2.9 -1.01414e-18 0)
(2.9 -2.46602e-19 0)
(2.9 -5.52415e-20 0)
(2.9 -1.15559e-20 0)
(2.9 -2.28099e-21 0)
(2.9 -4.28299e-22 0)
(2.9 -7.7001e-23 0)
(2.9 -1.33249e-23 0)
(2.9 -2.22912e-24 0)
(2.9 -3.61818e-25 0)
(2.9 -5.71563e-26 0)
(2.9 -8.81032e-27 0)
(2.9 -1.32816e-27 0)
(2.9 -1.96195e-28 0)
(2.9 -2.84475e-29 0)
(2.9 -4.05479e-30 0)
(2.9 -5.68896e-31 0)
(2.9 -7.86591e-32 0)
(2.9 -1.07293e-32 0)
(2.9 -1.44512e-33 0)
(2.9 -1.92359e-34 0)
(2.9 -2.5324e-35 0)
(2.9 -3.29958e-36 0)
(2.9 -4.2576e-37 0)
(2.9 -5.44376e-38 0)
(2.9 -6.90063e-39 0)
(2.9 -8.67642e-40 0)
(2.9 -1.08255e-40 0)
(2.9 -1.34085e-41 0)
(2.9 -1.64934e-42 0)
(2.9 -2.01549e-43 0)
(2.9 -2.44755e-44 0)
(2.9 -2.95458e-45 0)
(2.9 -3.54642e-46 0)
(2.9 -4.23379e-47 0)
(2.9 -5.02825e-48 0)
(2.9 -5.94226e-49 0)
(2.9 -6.98914e-50 0)
(2.9 -8.18314e-51 0)
(2.9 -9.53973e-52 0)
(2.9 -1.25177e-52 0)
(2.9 1.51579e-17 0)
(2.9 3.53248e-17 0)
(2.9 2.84125e-17 0)
(2.9 1.48462e-17 0)
(2.9 5.96187e-18 0)
(2.9 1.99153e-18 0)
(2.9 5.79313e-19 0)
(2.9 1.5115e-19 0)
(2.9 3.61055e-20 0)
(2.9 8.01479e-21 0)
(2.9 1.67209e-21 0)
(2.9 3.30731e-22 0)
(2.9 -1.80002e-17 0)
(2.9 -5.28436e-17 0)
(2.9 -5.87357e-17 0)
(2.9 -3.89361e-17 0)
(2.9 -1.86688e-17 0)
(2.9 -7.15021e-18 0)
(2.9 -2.319e-18 0)
(2.9 -6.61215e-19 0)
(2.9 -1.70059e-19 0)
(2.9 -4.01866e-20 0)
(2.9 -8.84629e-21 0)
(2.9 -1.83325e-21 0)
(2.9 -3.60634e-22 0)
(2.9 -6.77929e-23 0)
(2.9 -1.22442e-23 0)
(2.9 -2.1343e-24 0)
(2.9 -3.60402e-25 0)
(2.9 -5.91437e-26 0)
(2.9 -9.458e-27 0)
(2.9 -1.47732e-27 0)
(2.9 -2.25851e-28 0)
(2.9 -3.38538e-29 0)
(2.9 -4.98325e-30 0)
(2.9 -7.21336e-31 0)
(2.9 -1.02805e-31 0)
(2.9 -1.44419e-32 0)
(2.9 -2.00166e-33 0)
(2.9 -2.73966e-34 0)
(2.9 -3.70591e-35 0)
(2.9 -4.95792e-36 0)
(2.9 -6.56441e-37 0)
(2.9 -8.60692e-38 0)
(2.9 -1.11813e-38 0)
(2.9 -1.43997e-39 0)
(2.9 -1.83921e-40 0)
(2.9 -2.33084e-41 0)
(2.9 -2.93203e-42 0)
(2.9 -3.66234e-43 0)
(2.9 -4.54394e-44 0)
(2.9 -5.60178e-45 0)
(2.9 -6.86385e-46 0)
(2.9 -8.36137e-47 0)
(2.9 -1.0129e-47 0)
(2.9 -1.2205e-48 0)
(2.9 -1.46315e-49 0)
(2.9 -1.74548e-50 0)
(2.9 -2.0726e-51 0)
(2.9 -2.77554e-52 0)
(2.9 6.29527e-18 0)
(2.9 1.5988e-17 0)
(2.9 1.38141e-17 0)
(2.9 7.7226e-18 0)
(2.9 3.30573e-18 0)
(2.9 1.17303e-18 0)
(2.9 3.61313e-19 0)
(2.9 9.953e-20 0)
(2.9 2.50342e-20 0)
(2.9 5.83724e-21 0)
(2.9 1.27632e-21 0)
(2.9 2.64045e-22 0)
(2.9 -7.83112e-18 0)
(2.9 -2.37329e-17 0)
(2.9 -2.77015e-17 0)
(2.9 -1.9462e-17 0)
(2.9 -9.90959e-18 0)
(2.9 -4.0272e-18 0)
(2.9 -1.38325e-18 0)
(2.9 -4.16738e-19 0)
(2.9 -1.12984e-19 0)
(2.9 -2.80802e-20 0)
(2.9 -6.48685e-21 0)
(2.9 -1.40787e-21 0)
(2.9 -2.89499e-22 0)
(2.9 -5.67853e-23 0)
(2.9 -1.06841e-23 0)
(2.9 -1.93711e-24 0)
(2.9 -3.39748e-25 0)
(2.9 -5.78326e-26 0)
(2.9 -9.58114e-27 0)
(2.9 -1.54861e-27 0)
(2.9 -2.44717e-28 0)
(2.9 -3.78774e-29 0)
(2.9 -5.75171e-30 0)
(2.9 -8.58102e-31 0)
(2.9 -1.25939e-31 0)
(2.9 -1.82038e-32 0)
(2.9 -2.5941e-33 0)
(2.9 -3.64786e-34 0)
(2.9 -5.06617e-35 0)
(2.9 -6.9541e-36 0)
(2.9 -9.44112e-37 0)
(2.9 -1.26853e-37 0)
(2.9 -1.68783e-38 0)
(2.9 -2.22502e-39 0)
(2.9 -2.90757e-40 0)
(2.9 -3.76802e-41 0)
(2.9 -4.84468e-42 0)
(2.9 -6.18236e-43 0)
(2.9 -7.83313e-44 0)
(2.9 -9.85722e-45 0)
(2.9 -1.23238e-45 0)
(2.9 -1.53122e-46 0)
(2.9 -1.89123e-47 0)
(2.9 -2.32262e-48 0)
(2.9 -2.83688e-49 0)
(2.9 -3.44693e-50 0)
(2.9 -4.16735e-51 0)
(2.9 -5.69355e-52 0)
(2.9 2.59728e-18 0)
(2.9 7.17135e-18 0)
(2.9 6.62498e-18 0)
(2.9 3.94453e-18 0)
(2.9 1.79248e-18 0)
(2.9 6.73184e-19 0)
(2.9 2.18837e-19 0)
(2.9 6.34564e-20 0)
(2.9 1.67611e-20 0)
(2.9 4.09517e-21 0)
(2.9 9.36366e-22 0)
(2.9 2.02199e-22 0)
(2.9 -3.38215e-18 0)
(2.9 -1.05707e-17 0)
(2.9 -1.29288e-17 0)
(2.9 -9.58964e-18 0)
(2.9 -5.16397e-18 0)
(2.9 -2.21805e-18 0)
(2.9 -8.03921e-19 0)
(2.9 -2.5508e-19 0)
(2.9 -7.26842e-20 0)
(2.9 -1.89477e-20 0)
(2.9 -4.58232e-21 0)
(2.9 -1.03923e-21 0)
(2.9 -2.22921e-22 0)
(2.9 -4.55404e-23 0)
(2.9 -8.91055e-24 0)
(2.9 -1.6777e-24 0)
(2.9 -3.05171e-25 0)
(2.9 -5.38085e-26 0)
(2.9 -9.22334e-27 0)
(2.9 -1.54077e-27 0)
(2.9 -2.51386e-28 0)
(2.9 -4.01351e-29 0)
(2.9 -6.28082e-30 0)
(2.9 -9.6486e-31 0)
(2.9 -1.45694e-31 0)
(2.9 -2.16505e-32 0)
(2.9 -3.16959e-33 0)
(2.9 -4.57578e-34 0)
(2.9 -6.5198e-35 0)
(2.9 -9.176e-36 0)
(2.9 -1.27654e-36 0)
(2.9 -1.75658e-37 0)
(2.9 -2.39229e-38 0)
(2.9 -3.22637e-39 0)
(2.9 -4.31113e-40 0)
(2.9 -5.71017e-41 0)
(2.9 -7.50029e-42 0)
(2.9 -9.7736e-43 0)
(2.9 -1.26399e-43 0)
(2.9 -1.6229e-44 0)
(2.9 -2.06941e-45 0)
(2.9 -2.62144e-46 0)
(2.9 -3.29983e-47 0)
(2.9 -4.12877e-48 0)
(2.9 -5.13611e-49 0)
(2.9 -6.35384e-50 0)
(2.9 -7.81881e-51 0)
(2.9 -1.08946e-51 0)
(2.9 1.06575e-18 0)
(2.9 3.19136e-18 0)
(2.9 3.1395e-18 0)
(2.9 1.98311e-18 0)
(2.9 9.5326e-19 0)
(2.9 3.77678e-19 0)
(2.9 1.29197e-19 0)
(2.9 3.93313e-20 0)
(2.9 1.08834e-20 0)
(2.9 2.7802e-21 0)
(2.9 6.63429e-22 0)
(2.9 1.49258e-22 0)
(2.9 -1.45166e-18 0)
(2.9 -4.67474e-18 0)
(2.9 -5.97871e-18 0)
(2.9 -4.66624e-18 0)
(2.9 -2.64804e-18 0)
(2.9 -1.19804e-18 0)
(2.9 -4.56763e-19 0)
(2.9 -1.52194e-19 0)
(2.9 -4.54599e-20 0)
(2.9 -1.24004e-20 0)
(2.9 -3.13258e-21 0)
(2.9 -7.40889e-22 0)
(2.9 -1.65478e-22 0)
(2.9 -3.51478e-23 0)
(2.9 -7.14038e-24 0)
(2.9 -1.39408e-24 0)
(2.9 -2.62631e-25 0)
(2.9 -4.79062e-26 0)
(2.9 -8.48597e-27 0)
(2.9 -1.46348e-27 0)
(2.9 -2.46272e-28 0)
(2.9 -4.05167e-29 0)
(2.9 -6.52822e-30 0)
(2.9 -1.03172e-30 0)
(2.9 -1.60153e-31 0)
(2.9 -2.44477e-32 0)
(2.9 -3.67414e-33 0)
(2.9 -5.4415e-34 0)
(2.9 -7.94911e-35 0)
(2.9 -1.14634e-35 0)
(2.9 -1.63315e-36 0)
(2.9 -2.30014e-37 0)
(2.9 -3.2046e-38 0)
(2.9 -4.4191e-39 0)
(2.9 -6.03482e-40 0)
(2.9 -8.16545e-41 0)
(2.9 -1.09516e-41 0)
(2.9 -1.45661e-42 0)
(2.9 -1.92197e-43 0)
(2.9 -2.51677e-44 0)
(2.9 -3.27177e-45 0)
(2.9 -4.22382e-46 0)
(2.9 -5.41674e-47 0)
(2.9 -6.90245e-48 0)
(2.9 -8.74206e-49 0)
(2.9 -1.10072e-49 0)
(2.9 -1.37821e-50 0)
(2.9 -1.95793e-51 0)
(2.9 4.35331e-19 0)
(2.9 1.41033e-18 0)
(2.9 1.47223e-18 0)
(2.9 9.83241e-19 0)
(2.9 4.98382e-19 0)
(2.9 2.07711e-19 0)
(2.9 7.45756e-20 0)
(2.9 2.37784e-20 0)
(2.9 6.87808e-21 0)
(2.9 1.83337e-21 0)
(2.9 4.55742e-22 0)
(2.9 1.06645e-22 0)
(2.9 -6.19756e-19 0)
(2.9 -2.05456e-18 0)
(2.9 -2.7422e-18 0)
(2.9 -2.24551e-18 0)
(2.9 -1.33878e-18 0)
(2.9 -6.36095e-19 0)
(2.9 -2.54395e-19 0)
(2.9 -8.87859e-20 0)
(2.9 -2.77342e-20 0)
(2.9 -7.89898e-21 0)
(2.9 -2.08023e-21 0)
(2.9 -5.12142e-22 0)
(2.9 -1.18902e-22 0)
(2.9 -2.62167e-23 0)
(2.9 -5.52185e-24 0)
(2.9 -1.11639e-24 0)
(2.9 -2.17549e-25 0)
(2.9 -4.10038e-26 0)
(2.9 -7.49763e-27 0)
(2.9 -1.3335e-27 0)
(2.9 -2.31215e-28 0)
(2.9 -3.91623e-29 0)
(2.9 -6.49109e-30 0)
(2.9 -1.0545e-30 0)
(2.9 -1.68139e-31 0)
(2.9 -2.63468e-32 0)
(2.9 -4.0618e-33 0)
(2.9 -6.1672e-34 0)
(2.9 -9.23081e-35 0)
(2.9 -1.36314e-35 0)
(2.9 -1.98761e-36 0)
(2.9 -2.8636e-37 0)
(2.9 -4.07917e-38 0)
(2.9 -5.74867e-39 0)
(2.9 -8.01934e-40 0)
(2.9 -1.10792e-40 0)
(2.9 -1.51662e-41 0)
(2.9 -2.05798e-42 0)
(2.9 -2.76933e-43 0)
(2.9 -3.69694e-44 0)
(2.9 -4.89778e-45 0)
(2.9 -6.44151e-46 0)
(2.9 -8.41287e-47 0)
(2.9 -1.09142e-47 0)
(2.9 -1.40687e-48 0)
(2.9 -1.80234e-49 0)
(2.9 -2.29547e-50 0)
(2.9 -3.32377e-51 0)
(2.9 1.77144e-19 0)
(2.9 6.19408e-19 0)
(2.9 6.83984e-19 0)
(2.9 4.81531e-19 0)
(2.9 2.56657e-19 0)
(2.9 1.12234e-19 0)
(2.9 4.21941e-20 0)
(2.9 1.40606e-20 0)
(2.9 4.24315e-21 0)
(2.9 1.17803e-21 0)
(2.9 3.04541e-22 0)
(2.9 7.40063e-23 0)
(2.9 -2.63367e-19 0)
(2.9 -8.98075e-19 0)
(2.9 -1.24857e-18 0)
(2.9 -1.06996e-18 0)
(2.9 -6.68379e-19 0)
(2.9 -3.32628e-19 0)
(2.9 -1.39199e-19 0)
(2.9 -5.07693e-20 0)
(2.9 -1.65497e-20 0)
(2.9 -4.91182e-21 0)
(2.9 -1.34608e-21 0)
(2.9 -3.44388e-22 0)
(2.9 -8.2982e-23 0)
(2.9 -1.8966e-23 0)
(2.9 -4.13601e-24 0)
(2.9 -8.64838e-25 0)
(2.9 -1.74118e-25 0)
(2.9 -3.38731e-26 0)
(2.9 -6.38698e-27 0)
(2.9 -1.17037e-27 0)
(2.9 -2.08903e-28 0)
(2.9 -3.63959e-29 0)
(2.9 -6.20057e-30 0)
(2.9 -1.03462e-30 0)
(2.9 -1.69329e-31 0)
(2.9 -2.7217e-32 0)
(2.9 -4.30146e-33 0)
(2.9 -6.69136e-34 0)
(2.9 -1.02554e-34 0)
(2.9 -1.54993e-35 0)
(2.9 -2.31171e-36 0)
(2.9 -3.40517e-37 0)
(2.9 -4.95697e-38 0)
(2.9 -7.13567e-39 0)
(2.9 -1.01635e-39 0)
(2.9 -1.43307e-40 0)
(2.9 -2.00135e-41 0)
(2.9 -2.76951e-42 0)
(2.9 -3.79921e-43 0)
(2.9 -5.1685e-44 0)
(2.9 -6.97551e-45 0)
(2.9 -9.34277e-46 0)
(2.9 -1.24224e-46 0)
(2.9 -1.64018e-47 0)
(2.9 -2.1511e-48 0)
(2.9 -2.80304e-49 0)
(2.9 -3.63019e-50 0)
(2.9 -5.356e-51 0)
(2.9 7.18508e-20 0)
(2.9 2.70539e-19 0)
(2.9 3.15142e-19 0)
(2.9 2.33247e-19 0)
(2.9 1.30404e-19 0)
(2.9 5.96945e-20 0)
(2.9 2.34494e-20 0)
(2.9 8.15088e-21 0)
(2.9 2.56157e-21 0)
(2.9 7.39498e-22 0)
(2.9 1.98508e-22 0)
(2.9 5.00243e-23 0)
(2.9 -1.11463e-19 0)
(2.9 -3.90667e-19 0)
(2.9 -5.6477e-19 0)
(2.9 -5.0533e-19 0)
(2.9 -3.29945e-19 0)
(2.9 -1.71586e-19 0)
(2.9 -7.49695e-20 0)
(2.9 -2.85153e-20 0)
(2.9 -9.68163e-21 0)
(2.9 -2.98897e-21 0)
(2.9 -8.50977e-22 0)
(2.9 -2.25905e-22 0)
(2.9 -5.64129e-23 0)
(2.9 -1.33474e-23 0)
(2.9 -3.00994e-24 0)
(2.9 -6.50168e-25 0)
(2.9 -1.35092e-25 0)
(2.9 -2.7098e-26 0)
(2.9 -5.26377e-27 0)
(2.9 -9.92855e-28 0)
(2.9 -1.82277e-28 0)
(2.9 -3.26392e-29 0)
(2.9 -5.71101e-30 0)
(2.9 -9.78064e-31 0)
(2.9 -1.64188e-31 0)
(2.9 -2.70527e-32 0)
(2.9 -4.3802e-33 0)
(2.9 -6.97686e-34 0)
(2.9 -1.0943e-34 0)
(2.9 -1.69164e-35 0)
(2.9 -2.5795e-36 0)
(2.9 -3.88278e-37 0)
(2.9 -5.77336e-38 0)
(2.9 -8.48534e-39 0)
(2.9 -1.23344e-39 0)
(2.9 -1.77425e-40 0)
(2.9 -2.52681e-41 0)
(2.9 -3.5645e-42 0)
(2.9 -4.98288e-43 0)
(2.9 -6.90548e-44 0)
(2.9 -9.49083e-45 0)
(2.9 -1.29409e-45 0)
(2.9 -1.75114e-46 0)
(2.9 -2.35238e-47 0)
(2.9 -3.13799e-48 0)
(2.9 -4.15789e-49 0)
(2.9 -5.4741e-50 0)
(2.9 -8.22725e-51 0)
(2.9 2.90631e-20 0)
(2.9 1.17579e-19 0)
(2.9 1.44119e-19 0)
(2.9 1.11872e-19 0)
(2.9 6.54582e-20 0)
(2.9 3.13026e-20 0)
(2.9 1.28237e-20 0)
(2.9 4.64121e-21 0)
(2.9 1.51647e-21 0)
(2.9 4.54533e-22 0)
(2.9 1.26515e-22 0)
(2.9 3.30179e-23 0)
(2.9 -4.70041e-20 0)
(2.9 -1.69209e-19 0)
(2.9 -2.53951e-19 0)
(2.9 -2.36759e-19 0)
(2.9 -1.61232e-19 0)
(2.9 -8.74335e-20 0)
(2.9 -3.9805e-20 0)
(2.9 -1.57596e-20 0)
(2.9 -5.56333e-21 0)
(2.9 -1.7837e-21 0)
(2.9 -5.26774e-22 0)
(2.9 -1.44893e-22 0)
(2.9 -3.74492e-23 0)
(2.9 -9.16108e-24 0)
(2.9 -2.13385e-24 0)
(2.9 -4.75635e-25 0)
(2.9 -1.0189e-25 0)
(2.9 -2.10531e-26 0)
(2.9 -4.20922e-27 0)
(2.9 -8.16545e-28 0)
(2.9 -1.54062e-28 0)
(2.9 -2.83316e-29 0)
(2.9 -5.0877e-30 0)
(2.9 -8.93671e-31 0)
(2.9 -1.53777e-31 0)
(2.9 -2.59566e-32 0)
(2.9 -4.30306e-33 0)
(2.9 -7.01393e-34 0)
(2.9 -1.12521e-34 0)
(2.9 -1.77827e-35 0)
(2.9 -2.77084e-36 0)
(2.9 -4.26001e-37 0)
(2.9 -6.46701e-38 0)
(2.9 -9.70002e-39 0)
(2.9 -1.4384e-39 0)
(2.9 -2.10992e-40 0)
(2.9 -3.06307e-41 0)
(2.9 -4.40314e-42 0)
(2.9 -6.27011e-43 0)
(2.9 -8.84867e-44 0)
(2.9 -1.23805e-44 0)
(2.9 -1.71798e-45 0)
(2.9 -2.36518e-46 0)
(2.9 -3.23158e-47 0)
(2.9 -4.38333e-48 0)
(2.9 -5.90409e-49 0)
(2.9 -7.89968e-50 0)
(2.9 -1.20911e-50 0)
(2.9 1.17282e-20 0)
(2.9 5.08728e-20 0)
(2.9 6.5465e-20 0)
(2.9 5.3181e-20 0)
(2.9 3.25001e-20 0)
(2.9 1.6205e-20 0)
(2.9 6.9112e-21 0)
(2.9 2.60022e-21 0)
(2.9 8.8198e-22 0)
(2.9 2.7408e-22 0)
(2.9 7.89982e-23 0)
(2.9 2.13254e-23 0)
(2.9 -1.97578e-20 0)
(2.9 -7.3005e-20 0)
(2.9 -1.13576e-19 0)
(2.9 -1.10126e-19 0)
(2.9 -7.80669e-20 0)
(2.9 -4.40609e-20 0)
(2.9 -2.08632e-20 0)
(2.9 -8.58335e-21 0)
(2.9 -3.14537e-21 0)
(2.9 -1.04573e-21 0)
(2.9 -3.19906e-22 0)
(2.9 -9.10528e-23 0)
(2.9 -2.43275e-23 0)
(2.9 -6.14596e-24 0)
(2.9 -1.47704e-24 0)
(2.9 -3.39395e-25 0)
(2.9 -7.48855e-26 0)
(2.9 -1.59247e-26 0)
(2.9 -3.27426e-27 0)
(2.9 -6.52726e-28 0)
(2.9 -1.26469e-28 0)
(2.9 -2.38677e-29 0)
(2.9 -4.39582e-30 0)
(2.9 -7.9143e-31 0)
(2.9 -1.39506e-31 0)
(2.9 -2.41089e-32 0)
(2.9 -4.08985e-33 0)
(2.9 -6.81825e-34 0)
(2.9 -1.1182e-34 0)
(2.9 -1.80573e-35 0)
(2.9 -2.87372e-36 0)
(2.9 -4.51063e-37 0)
(2.9 -6.98788e-38 0)
(2.9 -1.0692e-38 0)
(2.9 -1.61676e-39 0)
(2.9 -2.41743e-40 0)
(2.9 -3.57613e-41 0)
(2.9 -5.23647e-42 0)
(2.9 -7.59329e-43 0)
(2.9 -1.09087e-43 0)
(2.9 -1.55326e-44 0)
(2.9 -2.19282e-45 0)
(2.9 -3.07046e-46 0)
(2.9 -4.26571e-47 0)
(2.9 -5.88166e-48 0)
(2.9 -8.05112e-49 0)
(2.9 -1.09449e-49 0)
(2.9 -1.70558e-50 0)
(2.9 4.72331e-21 0)
(2.9 2.19222e-20 0)
(2.9 2.95553e-20 0)
(2.9 2.5077e-20 0)
(2.9 1.59767e-20 0)
(2.9 8.29182e-21 0)
(2.9 3.67558e-21 0)
(2.9 1.43539e-21 0)
(2.9 5.04727e-22 0)
(2.9 1.62404e-22 0)
(2.9 4.84139e-23 0)
(2.9 1.35029e-23 0)
(2.9 -8.28087e-21 0)
(2.9 -3.13871e-20 0)
(2.9 -5.05458e-20 0)
(2.9 -5.08859e-20 0)
(2.9 -3.74839e-20 0)
(2.9 -2.19807e-20 0)
(2.9 -1.08073e-20 0)
(2.9 -4.61299e-21 0)
(2.9 -1.75219e-21 0)
(2.9 -6.03242e-22 0)
(2.9 -1.90912e-22 0)
(2.9 -5.61595e-23 0)
(2.9 -1.54932e-23 0)
(2.9 -4.03793e-24 0)
(2.9 -1.00025e-24 0)
(2.9 -2.36708e-25 0)
(2.9 -5.37467e-26 0)
(2.9 -1.17529e-26 0)
(2.9 -2.4831e-27 0)
(2.9 -5.08302e-28 0)
(2.9 -1.01065e-28 0)
(2.9 -1.95606e-29 0)
(2.9 -3.69236e-30 0)
(2.9 -6.80962e-31 0)
(2.9 -1.22889e-31 0)
(2.9 -2.1731e-32 0)
(2.9 -3.77028e-33 0)
(2.9 -6.42533e-34 0)
(2.9 -1.07671e-34 0)
(2.9 -1.7758e-35 0)
(2.9 -2.88514e-36 0)
(2.9 -4.62129e-37 0)
(2.9 -7.30304e-38 0)
(2.9 -1.13942e-38 0)
(2.9 -1.75623e-39 0)
(2.9 -2.67576e-40 0)
(2.9 -4.03197e-41 0)
(2.9 -6.0119e-42 0)
(2.9 -8.87431e-43 0)
(2.9 -1.29741e-43 0)
(2.9 -1.8794e-44 0)
(2.9 -2.69852e-45 0)
(2.9 -3.84198e-46 0)
(2.9 -5.42568e-47 0)
(2.9 -7.6026e-48 0)
(2.9 -1.05733e-48 0)
(2.9 -1.46e-49 0)
(2.9 -2.31583e-50 0)
(2.9 1.89892e-21 0)
(2.9 9.41205e-21 0)
(2.9 1.3269e-20 0)
(2.9 1.17378e-20 0)
(2.9 7.78299e-21 0)
(2.9 4.19778e-21 0)
(2.9 1.93119e-21 0)
(2.9 7.81727e-22 0)
(2.9 2.84588e-22 0)
(2.9 9.47004e-23 0)
(2.9 2.91654e-23 0)
(2.9 8.39529e-24 0)
(2.9 -3.46149e-21 0)
(2.9 -1.34511e-20 0)
(2.9 -2.23938e-20 0)
(2.9 -2.3371e-20 0)
(2.9 -1.78606e-20 0)
(2.9 -1.08647e-20 0)
(2.9 -5.53838e-21 0)
(2.9 -2.44914e-21 0)
(2.9 -9.62959e-22 0)
(2.9 -3.42867e-22 0)
(2.9 -1.1212e-22 0)
(2.9 -3.4049e-23 0)
(2.9 -9.68894e-24 0)
(2.9 -2.60245e-24 0)
(2.9 -6.63856e-25 0)
(2.9 -1.61652e-25 0)
(2.9 -3.77398e-26 0)
(2.9 -8.47942e-27 0)
(2.9 -1.83948e-27 0)
(2.9 -3.86384e-28 0)
(2.9 -7.87821e-29 0)
(2.9 -1.56271e-29 0)
(2.9 -3.02153e-30 0)
(2.9 -5.70474e-31 0)
(2.9 -1.05339e-31 0)
(2.9 -1.90504e-32 0)
(2.9 -3.37862e-33 0)
(2.9 -5.88305e-34 0)
(2.9 -1.00683e-34 0)
(2.9 -1.6952e-35 0)
(2.9 -2.81049e-36 0)
(2.9 -4.59196e-37 0)
(2.9 -7.39939e-38 0)
(2.9 -1.17673e-38 0)
(2.9 -1.84808e-39 0)
(2.9 -2.86805e-40 0)
(2.9 -4.40064e-41 0)
(2.9 -6.67932e-42 0)
(2.9 -1.00334e-42 0)
(2.9 -1.49229e-43 0)
(2.9 -2.19853e-44 0)
(2.9 -3.20967e-45 0)
(2.9 -4.64508e-46 0)
(2.9 -6.6663e-47 0)
(2.9 -9.49023e-48 0)
(2.9 -1.34061e-48 0)
(2.9 -1.87985e-49 0)
(2.9 -3.03436e-50 0)
(2.9 7.62281e-22 0)
(2.9 4.02741e-21 0)
(2.9 5.9268e-21 0)
(2.9 5.45712e-21 0)
(2.9 3.76005e-21 0)
(2.9 2.10447e-21 0)
(2.9 1.00342e-21 0)
(2.9 4.20477e-22 0)
(2.9 1.58292e-22 0)
(2.9 5.44124e-23 0)
(2.9 1.7294e-23 0)
(2.9 5.13268e-24 0)
(2.9 -1.44341e-21 0)
(2.9 -5.7476e-21 0)
(2.9 -9.88034e-21 0)
(2.9 -1.06744e-20 0)
(2.9 -8.4507e-21 0)
(2.9 -5.32484e-21 0)
(2.9 -2.81034e-21 0)
(2.9 -1.28582e-21 0)
(2.9 -5.22666e-22 0)
(2.9 -1.92236e-22 0)
(2.9 -6.48821e-23 0)
(2.9 -2.03198e-23 0)
(2.9 -5.95819e-24 0)
(2.9 -1.6478e-24 0)
(2.9 -4.32464e-25 0)
(2.9 -1.08267e-25 0)
(2.9 -2.59688e-26 0)
(2.9 -5.99054e-27 0)
(2.9 -1.33341e-27 0)
(2.9 -2.87204e-28 0)
(2.9 -6.00132e-29 0)
(2.9 -1.21928e-29 0)
(2.9 -2.41335e-30 0)
(2.9 -4.66202e-31 0)
(2.9 -8.80357e-32 0)
(2.9 -1.62742e-32 0)
(2.9 -2.94891e-33 0)
(2.9 -5.24398e-34 0)
(2.9 -9.16152e-35 0)
(2.9 -1.57402e-35 0)
(2.9 -2.66183e-36 0)
(2.9 -4.43448e-37 0)
(2.9 -7.28331e-38 0)
(2.9 -1.18018e-38 0)
(2.9 -1.88791e-39 0)
(2.9 -2.9833e-40 0)
(2.9 -4.65952e-41 0)
(2.9 -7.19681e-42 0)
(2.9 -1.09979e-42 0)
(2.9 -1.66359e-43 0)
(2.9 -2.49195e-44 0)
(2.9 -3.69797e-45 0)
(2.9 -5.43854e-46 0)
(2.9 -7.9296e-47 0)
(2.9 -1.14661e-47 0)
(2.9 -1.64479e-48 0)
(2.9 -2.34156e-49 0)
(2.9 -3.84536e-50 0)
(2.9 3.05605e-22 0)
(2.9 1.71804e-21 0)
(2.9 2.63489e-21 0)
(2.9 2.52138e-21 0)
(2.9 1.80267e-21 0)
(2.9 1.04558e-21 0)
(2.9 5.16034e-22 0)
(2.9 2.23589e-22 0)
(2.9 8.69432e-23 0)
(2.9 3.08407e-23 0)
(2.9 1.01058e-23 0)
(2.9 3.08956e-24 0)
(2.9 -6.00523e-22 0)
(2.9 -2.44931e-21 0)
(2.9 -4.34267e-21 0)
(2.9 -4.8504e-21 0)
(2.9 -3.97258e-21 0)
(2.9 -2.58942e-21 0)
(2.9 -1.41313e-21 0)
(2.9 -6.68125e-22 0)
(2.9 -2.80446e-22 0)
(2.9 -1.06433e-22 0)
(2.9 -3.70378e-23 0)
(2.9 -1.19505e-23 0)
(2.9 -3.60746e-24 0)
(2.9 -1.02634e-24 0)
(2.9 -2.76906e-25 0)
(2.9 -7.12155e-26 0)
(2.9 -1.75365e-26 0)
(2.9 -4.15044e-27 0)
(2.9 -9.47255e-28 0)
(2.9 -2.09083e-28 0)
(2.9 -4.47461e-29 0)
(2.9 -9.30594e-30 0)
(2.9 -1.88454e-30 0)
(2.9 -3.72284e-31 0)
(2.9 -7.18566e-32 0)
(2.9 -1.35712e-32 0)
(2.9 -2.51133e-33 0)
(2.9 -4.55874e-34 0)
(2.9 -8.12675e-35 0)
(2.9 -1.42415e-35 0)
(2.9 -2.45563e-36 0)
(2.9 -4.16968e-37 0)
(2.9 -6.97776e-38 0)
(2.9 -1.15164e-38 0)
(2.9 -1.87582e-39 0)
(2.9 -3.01726e-40 0)
(2.9 -4.79546e-41 0)
(2.9 -7.53488e-42 0)
(2.9 -1.17103e-42 0)
(2.9 -1.80099e-43 0)
(2.9 -2.74218e-44 0)
(2.9 -4.13521e-45 0)
(2.9 -6.17856e-46 0)
(2.9 -9.15e-47 0)
(2.9 -1.34353e-47 0)
(2.9 -1.95663e-48 0)
(2.9 -2.82732e-49 0)
(2.9 -4.7228e-50 0)
(2.9 1.22382e-22 0)
(2.9 7.3083e-22 0)
(2.9 1.16634e-21 0)
(2.9 1.1583e-21 0)
(2.9 8.58167e-22 0)
(2.9 5.15176e-22 0)
(2.9 2.62876e-22 0)
(2.9 1.1764e-22 0)
(2.9 4.72013e-23 0)
(2.9 1.72609e-23 0)
(2.9 5.82585e-24 0)
(2.9 1.83306e-24 0)
(2.9 -2.49308e-22 0)
(2.9 -1.04116e-21 0)
(2.9 -1.90198e-21 0)
(2.9 -2.19356e-21 0)
(2.9 -1.8563e-21 0)
(2.9 -1.25014e-21 0)
(2.9 -7.04607e-22 0)
(2.9 -3.43863e-22 0)
(2.9 -1.48885e-22 0)
(2.9 -5.82437e-23 0)
(2.9 -2.08774e-23 0)
(2.9 -6.9337e-24 0)
(2.9 -2.15288e-24 0)
(2.9 -6.29584e-25 0)
(2.9 -1.7448e-25 0)