/*--------------------------------*- C++ -*----------------------------------*\
| =========                 |                                                 |
| \\      /  F ield         | OpenFOAM: The Open Source CFD Toolbox           |
|  \\    /   O peration     | Version:  2412                                  |
|   \\  /    A nd           | Website:  www.openfoam.com                      |
|    \\/     M anipulation  |                                                 |
\*---------------------------------------------------------------------------*/
FoamFile
{
    version     2.0;
    format      ascii;
    arch        "LSB;label=32;scalar=64";
    class       volVectorField;
    location    "0.0025";
    object      U;
}
// * * * * * * * * * * * * * * * * * * * * * * * * * * * * * * * * * * * * * //

dimensions      [0 1 -1 0 0 0 0];

internalField   nonuniform List<vector> 
1800
(
(2.9 3.56802e-14 0)
(2.9 2.86996e-14 0)
(2.9 3.10685e-15 0)
(2.9 3.40313e-16 0)
(2.9 3.69857e-17 0)
(2.9 3.94196e-18 0)
(2.9 4.1157e-19 0)
(2.9 4.21951e-20 0)
(2.9 4.26121e-21 0)
(2.9 4.25154e-22 0)
(2.9 4.20147e-23 0)
(2.9 4.12095e-24 0)
(2.9 -2.44987e-14 0)
(2.9 -4.59177e-14 0)
(2.9 -3.01619e-14 0)
(2.9 -3.29178e-15 0)
(2.9 -3.61902e-16 0)
(2.9 -3.9373e-17 0)
(2.9 -4.19614e-18 0)
(2.9 -4.37906e-19 0)
(2.9 -4.48702e-20 0)
(2.9 -4.52895e-21 0)
(2.9 -4.51655e-22 0)
(2.9 -4.4616e-23 0)
(2.9 -4.37469e-24 0)
(2.9 -4.26474e-25 0)
(2.9 -4.13896e-26 0)
(2.9 -4.00303e-27 0)
(2.9 -3.86127e-28 0)
(2.9 -3.71693e-29 0)
(2.9 -3.57241e-30 0)
(2.9 -3.42943e-31 0)
(2.9 -3.2892e-32 0)
(2.9 -3.15254e-33 0)
(2.9 -3.02e-34 0)
(2.9 -2.8919e-35 0)
(2.9 -2.76842e-36 0)
(2.9 -2.64963e-37 0)
(2.9 -2.53552e-38 0)
(2.9 -2.42602e-39 0)
(2.9 -2.32104e-40 0)
(2.9 -2.22045e-41 0)
(2.9 -2.12412e-42 0)
(2.9 -2.03188e-43 0)
(2.9 -1.9436e-44 0)
(2.9 -1.85911e-45 0)
(2.9 -1.77827e-46 0)
(2.9 -1.70092e-47 0)
(2.9 -1.62693e-48 0)
(2.9 -1.55614e-49 0)
(2.9 -1.48843e-50 0)
(2.9 -1.42366e-51 0)
(2.9 -1.3617e-52 0)
(2.9 -1.30244e-53 0)
(2.9 -1.24576e-54 0)
(2.9 -1.19154e-55 0)
(2.9 -1.13968e-56 0)
(2.9 -1.09008e-57 0)
(2.9 -1.04263e-58 0)
(2.9 -1.10273e-59 0)
(2.9 3.21539e-14 0)
(2.9 2.12807e-14 0)
(2.9 4.54957e-15 0)
(2.9 7.65298e-16 0)
(2.9 1.14318e-16 0)
(2.9 1.58291e-17 0)
(2.9 2.07646e-18 0)
(2.9 2.61497e-19 0)
(2.9 3.18964e-20 0)
(2.9 3.79215e-21 0)
(2.9 4.4149e-22 0)
(2.9 5.05107e-23 0)
(2.9 -2.36532e-14 0)
(2.9 -4.6994e-14 0)
(2.9 -2.42337e-14 0)
(2.9 -5.0448e-15 0)
(2.9 -8.39642e-16 0)
(2.9 -1.24654e-16 0)
(2.9 -1.71881e-17 0)
(2.9 -2.24774e-18 0)
(2.9 -2.82388e-19 0)
(2.9 -3.43785e-20 0)
(2.9 -4.08085e-21 0)
(2.9 -4.74484e-22 0)
(2.9 -5.4226e-23 0)
(2.9 -6.10775e-24 0)
(2.9 -6.79467e-25 0)
(2.9 -7.47845e-26 0)
(2.9 -8.15483e-27 0)
(2.9 -8.82014e-28 0)
(2.9 -9.47118e-29 0)
(2.9 -1.01053e-29 0)
(2.9 -1.07201e-30 0)
(2.9 -1.13137e-31 0)
(2.9 -1.18845e-32 0)
(2.9 -1.24311e-33 0)
(2.9 -1.29526e-34 0)
(2.9 -1.34481e-35 0)
(2.9 -1.3917e-36 0)
(2.9 -1.43589e-37 0)
(2.9 -1.47735e-38 0)
(2.9 -1.51607e-39 0)
(2.9 -1.55205e-40 0)
(2.9 -1.58532e-41 0)
(2.9 -1.61589e-42 0)
(2.9 -1.6438e-43 0)
(2.9 -1.66909e-44 0)
(2.9 -1.69182e-45 0)
(2.9 -1.71204e-46 0)
(2.9 -1.7298e-47 0)
(2.9 -1.74518e-48 0)
(2.9 -1.75825e-49 0)
(2.9 -1.76907e-50 0)
(2.9 -1.77772e-51 0)
(2.9 -1.78428e-52 0)
(2.9 -1.78883e-53 0)
(2.9 -1.79144e-54 0)
(2.9 -1.7922e-55 0)
(2.9 -1.7912e-56 0)
(2.9 -1.98654e-57 0)
(2.9 1.92545e-14 0)
(2.9 1.3858e-14 0)
(2.9 3.99398e-15 0)
(2.9 8.47673e-16 0)
(2.9 1.52697e-16 0)
(2.9 2.47536e-17 0)
(2.9 3.72395e-18 0)
(2.9 5.29657e-19 0)
(2.9 7.20986e-20 0)
(2.9 9.47386e-21 0)
(2.9 1.20926e-21 0)
(2.9 1.50647e-22 0)
(2.9 -1.5057e-14 0)
(2.9 -3.14219e-14 0)
(2.9 -1.68682e-14 0)
(2.9 -4.59969e-15 0)
(2.9 -9.54202e-16 0)
(2.9 -1.69742e-16 0)
(2.9 -2.72961e-17 0)
(2.9 -4.08335e-18 0)
(2.9 -5.78339e-19 0)
(2.9 -7.84692e-20 0)
(2.9 -1.02841e-20 0)
(2.9 -1.30988e-21 0)
(2.9 -1.62891e-22 0)
(2.9 -1.98486e-23 0)
(2.9 -2.37664e-24 0)
(2.9 -2.80284e-25 0)
(2.9 -3.26173e-26 0)
(2.9 -3.75139e-27 0)
(2.9 -4.26967e-28 0)
(2.9 -4.8143e-29 0)
(2.9 -5.3829e-30 0)
(2.9 -5.97302e-31 0)
(2.9 -6.58217e-32 0)
(2.9 -7.20784e-33 0)
(2.9 -7.84752e-34 0)
(2.9 -8.49874e-35 0)
(2.9 -9.15906e-36 0)
(2.9 -9.82609e-37 0)
(2.9 -1.04975e-37 0)
(2.9 -1.11711e-38 0)
(2.9 -1.18448e-39 0)
(2.9 -1.25164e-40 0)
(2.9 -1.3184e-41 0)
(2.9 -1.38457e-42 0)
(2.9 -1.44999e-43 0)
(2.9 -1.51448e-44 0)
(2.9 -1.57789e-45 0)
(2.9 -1.64008e-46 0)
(2.9 -1.70091e-47 0)
(2.9 -1.76027e-48 0)
(2.9 -1.81804e-49 0)
(2.9 -1.87413e-50 0)
(2.9 -1.92843e-51 0)
(2.9 -1.98087e-52 0)
(2.9 -2.03138e-53 0)
(2.9 -2.0799e-54 0)
(2.9 -2.12638e-55 0)
(2.9 -2.41692e-56 0)
(2.9 9.9981e-15 0)
(2.9 8.22584e-15 0)
(2.9 2.89227e-15 0)
(2.9 7.28725e-16 0)
(2.9 1.52047e-16 0)
(2.9 2.80202e-17 0)
(2.9 4.72401e-18 0)
(2.9 7.44544e-19 0)
(2.9 1.11291e-19 0)
(2.9 1.59377e-20 0)
(2.9 2.203e-21 0)
(2.9 2.95581e-22 0)
(2.9 -8.28288e-15 0)
(2.9 -1.80944e-14 0)
(2.9 -1.06147e-14 0)
(2.9 -3.45064e-15 0)
(2.9 -8.40737e-16 0)
(2.9 -1.72208e-16 0)
(2.9 -3.13658e-17 0)
(2.9 -5.24533e-18 0)
(2.9 -8.21788e-19 0)
(2.9 -1.22276e-19 0)
(2.9 -1.74471e-20 0)
(2.9 -2.40452e-21 0)
(2.9 -3.21828e-22 0)
(2.9 -4.20111e-23 0)
(2.9 -5.36692e-24 0)
(2.9 -6.72824e-25 0)
(2.9 -8.29612e-26 0)
(2.9 -1.008e-26 0)
(2.9 -1.20878e-27 0)
(2.9 -1.43257e-28 0)
(2.9 -1.67983e-29 0)
(2.9 -1.95084e-30 0)
(2.9 -2.24575e-31 0)
(2.9 -2.56453e-32 0)
(2.9 -2.90703e-33 0)
(2.9 -3.27294e-34 0)
(2.9 -3.66183e-35 0)
(2.9 -4.07313e-36 0)
(2.9 -4.50619e-37 0)
(2.9 -4.96022e-38 0)
(2.9 -5.43435e-39 0)
(2.9 -5.92764e-40 0)
(2.9 -6.43905e-41 0)
(2.9 -6.96748e-42 0)
(2.9 -7.51178e-43 0)
(2.9 -8.07075e-44 0)
(2.9 -8.64314e-45 0)
(2.9 -9.22767e-46 0)
(2.9 -9.82303e-47 0)
(2.9 -1.04279e-47 0)
(2.9 -1.1041e-48 0)
(2.9 -1.16609e-49 0)
(2.9 -1.22864e-50 0)
(2.9 -1.2916e-51 0)
(2.9 -1.35486e-52 0)
(2.9 -1.41827e-53 0)
(2.9 -1.48173e-54 0)
(2.9 -1.72436e-55 0)
(2.9 4.85078e-15 0)
(2.9 4.57413e-15 0)
(2.9 1.87796e-15 0)
(2.9 5.43879e-16 0)
(2.9 1.28389e-16 0)
(2.9 2.64198e-17 0)
(2.9 4.92089e-18 0)
(2.9 8.49375e-19 0)
(2.9 1.38033e-19 0)
(2.9 2.13589e-20 0)
(2.9 3.17322e-21 0)
(2.9 4.55509e-22 0)
(2.9 -4.22599e-15 0)
(2.9 -9.64109e-15 0)
(2.9 -6.22221e-15 0)
(2.9 -2.31674e-15 0)
(2.9 -6.4264e-16 0)
(2.9 -1.48108e-16 0)
(2.9 -3.0017e-17 0)
(2.9 -5.5324e-18 0)
(2.9 -9.47591e-19 0)
(2.9 -1.53088e-19 0)
(2.9 -2.35784e-20 0)
(2.9 -3.48974e-21 0)
(2.9 -4.9938e-22 0)
(2.9 -6.94234e-23 0)
(2.9 -9.41202e-24 0)
(2.9 -1.24829e-24 0)
(2.9 -1.62375e-25 0)
(2.9 -2.07599e-26 0)
(2.9 -2.61348e-27 0)
(2.9 -3.24467e-28 0)
(2.9 -3.97789e-29 0)
(2.9 -4.82128e-30 0)
(2.9 -5.78271e-31 0)
(2.9 -6.86972e-32 0)
(2.9 -8.08942e-33 0)
(2.9 -9.44851e-34 0)
(2.9 -1.09531e-34 0)
(2.9 -1.26089e-35 0)
(2.9 -1.44208e-36 0)
(2.9 -1.63933e-37 0)
(2.9 -1.85302e-38 0)
(2.9 -2.08344e-39 0)
(2.9 -2.33085e-40 0)
(2.9 -2.59541e-41 0)
(2.9 -2.87724e-42 0)
(2.9 -3.17637e-43 0)
(2.9 -3.49278e-44 0)
(2.9 -3.82635e-45 0)
(2.9 -4.17694e-46 0)
(2.9 -4.54433e-47 0)
(2.9 -4.92821e-48 0)
(2.9 -5.32827e-49 0)
(2.9 -5.74408e-50 0)
(2.9 -6.17521e-51 0)
(2.9 -6.62116e-52 0)
(2.9 -7.08136e-53 0)
(2.9 -7.55536e-54 0)
(2.9 -8.99636e-55 0)
(2.9 2.22101e-15 0)
(2.9 2.42036e-15 0)
(2.9 1.13339e-15 0)
(2.9 3.6976e-16 0)
(2.9 9.71924e-17 0)
(2.9 2.20495e-17 0)
(2.9 4.49004e-18 0)
(2.9 8.41354e-19 0)
(2.9 1.47545e-19 0)
(2.9 2.45095e-20 0)
(2.9 3.89147e-21 0)
(2.9 5.94631e-22 0)
(2.9 -2.05907e-15 0)
(2.9 -4.89605e-15 0)
(2.9 -3.46355e-15 0)
(2.9 -1.44427e-15 0)
(2.9 -4.47246e-16 0)
(2.9 -1.14172e-16 0)
(2.9 -2.54238e-17 0)
(2.9 -5.11097e-18 0)
(2.9 -9.48721e-19 0)
(2.9 -1.6518e-19 0)
(2.9 -2.72835e-20 0)
(2.9 -4.31201e-21 0)
(2.9 -6.56392e-22 0)
(2.9 -9.67405e-23 0)
(2.9 -1.38622e-23 0)
(2.9 -1.93784e-24 0)
(2.9 -2.6503e-25 0)
(2.9 -3.55458e-26 0)
(2.9 -4.68455e-27 0)
(2.9 -6.07684e-28 0)
(2.9 -7.77062e-29 0)
(2.9 -9.80745e-30 0)
(2.9 -1.2231e-30 0)
(2.9 -1.50869e-31 0)
(2.9 -1.84222e-32 0)
(2.9 -2.22854e-33 0)
(2.9 -2.6726e-34 0)
(2.9 -3.17941e-35 0)
(2.9 -3.75402e-36 0)
(2.9 -4.40147e-37 0)
(2.9 -5.12679e-38 0)
(2.9 -5.93494e-39 0)
(2.9 -6.83078e-40 0)
(2.9 -7.81908e-41 0)
(2.9 -8.90441e-42 0)
(2.9 -1.00912e-42 0)
(2.9 -1.13837e-43 0)
(2.9 -1.27858e-44 0)
(2.9 -1.43014e-45 0)
(2.9 -1.59338e-46 0)
(2.9 -1.76862e-47 0)
(2.9 -1.95616e-48 0)
(2.9 -2.15624e-49 0)
(2.9 -2.36908e-50 0)
(2.9 -2.59488e-51 0)
(2.9 -2.83379e-52 0)
(2.9 -3.08598e-53 0)
(2.9 -3.75773e-54 0)
(2.9 9.57614e-16 0)
(2.9 1.23115e-15 0)
(2.9 6.48368e-16 0)
(2.9 2.34999e-16 0)
(2.9 6.79814e-17 0)
(2.9 1.68386e-17 0)
(2.9 3.71832e-18 0)
(2.9 7.51142e-19 0)
(2.9 1.41291e-19 0)
(2.9 2.50639e-20 0)
(2.9 4.23313e-21 0)
(2.9 6.85693e-22 0)
(2.9 -9.72528e-16 0)
(2.9 -2.40602e-15 0)
(2.9 -1.85397e-15 0)
(2.9 -8.53078e-16 0)
(2.9 -2.90892e-16 0)
(2.9 -8.13067e-17 0)
(2.9 -1.97022e-17 0)
(2.9 -4.28511e-18 0)
(2.9 -8.56071e-19 0)
(2.9 -1.59666e-19 0)
(2.9 -2.81346e-20 0)
(2.9 -4.72608e-21 0)
(2.9 -7.62124e-22 0)
(2.9 -1.18637e-22 0)
(2.9 -1.79072e-23 0)
(2.9 -2.63048e-24 0)
(2.9 -3.77197e-25 0)
(2.9 -5.29338e-26 0)
(2.9 -7.28573e-27 0)
(2.9 -9.85357e-28 0)
(2.9 -1.31157e-28 0)
(2.9 -1.72055e-29 0)
(2.9 -2.22717e-30 0)
(2.9 -2.84781e-31 0)
(2.9 -3.60043e-32 0)
(2.9 -4.50451e-33 0)
(2.9 -5.58107e-34 0)
(2.9 -6.8526e-35 0)
(2.9 -8.34306e-36 0)
(2.9 -1.00778e-36 0)
(2.9 -1.20834e-37 0)
(2.9 -1.43878e-38 0)
(2.9 -1.70199e-39 0)
(2.9 -2.00099e-40 0)
(2.9 -2.33885e-41 0)
(2.9 -2.71876e-42 0)
(2.9 -3.14395e-43 0)
(2.9 -3.61771e-44 0)
(2.9 -4.14335e-45 0)
(2.9 -4.72424e-46 0)
(2.9 -5.36372e-47 0)
(2.9 -6.06514e-48 0)
(2.9 -6.83183e-49 0)
(2.9 -7.66707e-50 0)
(2.9 -8.57411e-51 0)
(2.9 -9.55611e-52 0)
(2.9 -1.06164e-52 0)
(2.9 -1.32136e-53 0)
(2.9 4.1988e-16 0)
(2.9 6.09209e-16 0)
(2.9 3.56144e-16 0)
(2.9 1.41878e-16 0)
(2.9 4.47606e-17 0)
(2.9 1.20115e-17 0)
(2.9 2.85725e-18 0)
(2.9 6.18698e-19 0)
(2.9 1.24204e-19 0)
(2.9 2.34246e-20 0)
(2.9 4.19184e-21 0)
(2.9 7.17249e-22 0)
(2.9 -4.49146e-16 0)
(2.9 -1.15432e-15 0)
(2.9 -9.62531e-16 0)
(2.9 -4.83463e-16 0)
(2.9 -1.79674e-16 0)
(2.9 -5.44974e-17 0)
(2.9 -1.42606e-17 0)
(2.9 -3.33356e-18 0)
(2.9 -7.12661e-19 0)
(2.9 -1.41676e-19 0)
(2.9 -2.65148e-20 0)
(2.9 -4.71536e-21 0)
(2.9 -8.02686e-22 0)
(2.9 -1.31554e-22 0)
(2.9 -2.08561e-23 0)
(2.9 -3.21082e-24 0)
(2.9 -4.81561e-25 0)
(2.9 -7.05539e-26 0)
(2.9 -1.01211e-26 0)
(2.9 -1.4244e-27 0)
(2.9 -1.97005e-28 0)
(2.9 -2.68173e-29 0)
(2.9 -3.59759e-30 0)
(2.9 -4.76175e-31 0)
(2.9 -6.22481e-32 0)
(2.9 -8.0442e-33 0)
(2.9 -1.02847e-33 0)
(2.9 -1.30187e-34 0)
(2.9 -1.63267e-35 0)
(2.9 -2.02974e-36 0)
(2.9 -2.50281e-37 0)
(2.9 -3.0625e-38 0)
(2.9 -3.72031e-39 0)
(2.9 -4.48865e-40 0)
(2.9 -5.38081e-41 0)
(2.9 -6.41102e-42 0)
(2.9 -7.59438e-43 0)
(2.9 -8.94686e-44 0)
(2.9 -1.04853e-44 0)
(2.9 -1.22274e-45 0)
(2.9 -1.41917e-46 0)
(2.9 -1.63972e-47 0)
(2.9 -1.88641e-48 0)
(2.9 -2.1613e-49 0)
(2.9 -2.4665e-50 0)
(2.9 -2.80419e-51 0)
(2.9 -3.1767e-52 0)
(2.9 -4.03964e-53 0)
(2.9 1.81117e-16 0)
(2.9 2.94855e-16 0)
(2.9 1.89456e-16 0)
(2.9 8.22489e-17 0)
(2.9 2.80912e-17 0)
(2.9 8.11514e-18 0)
(2.9 2.06802e-18 0)
(2.9 4.77678e-19 0)
(2.9 1.01906e-19 0)
(2.9 2.03556e-20 0)
(2.9 3.84641e-21 0)
(2.9 6.93075e-22 0)
(2.9 -2.03944e-16 0)
(2.9 -5.43712e-16 0)
(2.9 -4.87633e-16 0)
(2.9 -2.65128e-16 0)
(2.9 -1.06525e-16 0)
(2.9 -3.48112e-17 0)
(2.9 -9.77528e-18 0)
(2.9 -2.44251e-18 0)
(2.9 -5.5609e-19 0)
(2.9 -1.17332e-19 0)
(2.9 -2.32338e-20 0)
(2.9 -4.35948e-21 0)
(2.9 -7.80972e-22 0)
(2.9 -1.34383e-22 0)
(2.9 -2.23199e-23 0)
(2.9 -3.59283e-24 0)
(2.9 -5.62402e-25 0)
(2.9 -8.58542e-26 0)
(2.9 -1.28126e-26 0)
(2.9 -1.87322e-27 0)
(2.9 -2.68781e-28 0)
(2.9 -3.79101e-29 0)
(2.9 -5.26335e-30 0)
(2.9 -7.20199e-31 0)
(2.9 -9.72297e-32 0)
(2.9 -1.29635e-32 0)
(2.9 -1.70844e-33 0)
(2.9 -2.22727e-34 0)
(2.9 -2.87438e-35 0)
(2.9 -3.67445e-36 0)
(2.9 -4.65554e-37 0)
(2.9 -5.84931e-38 0)
(2.9 -7.29134e-39 0)
(2.9 -9.02131e-40 0)
(2.9 -1.10833e-40 0)
(2.9 -1.35259e-41 0)
(2.9 -1.64025e-42 0)
(2.9 -1.97716e-43 0)
(2.9 -2.36967e-44 0)
(2.9 -2.82469e-45 0)
(2.9 -3.34963e-46 0)
(2.9 -3.9525e-47 0)
(2.9 -4.64185e-48 0)
(2.9 -5.42682e-49 0)
(2.9 -6.31711e-50 0)
(2.9 -7.32301e-51 0)
(2.9 -8.45563e-52 0)
(2.9 -1.09813e-52 0)
(2.9 7.71526e-17 0)
(2.9 1.40146e-16 0)
(2.9 9.81962e-17 0)
(2.9 4.61325e-17 0)
(2.9 1.69533e-17 0)
(2.9 5.24422e-18 0)
(2.9 1.42497e-18 0)
(2.9 3.49648e-19 0)
(2.9 7.89762e-20 0)
(2.9 1.66527e-20 0)
(2.9 3.31278e-21 0)
(2.9 6.26901e-22 0)
(2.9 -9.13855e-17 0)
(2.9 -2.52395e-16 0)
(2.9 -2.42138e-16 0)
(2.9 -1.41543e-16 0)
(2.9 -6.10823e-17 0)
(2.9 -2.1379e-17 0)
(2.9 -6.40858e-18 0)
(2.9 -1.70367e-18 0)
(2.9 -4.11369e-19 0)
(2.9 -9.17825e-20 0)
(2.9 -1.91662e-20 0)
(2.9 -3.78301e-21 0)
(2.9 -7.11266e-22 0)
(2.9 -1.28179e-22 0)
(2.9 -2.22537e-23 0)
(2.9 -3.7377e-24 0)
(2.9 -6.09473e-25 0)
(2.9 -9.67706e-26 0)
(2.9 -1.49995e-26 0)
(2.9 -2.2746e-27 0)
(2.9 -3.38108e-28 0)
(2.9 -4.93457e-29 0)
(2.9 -7.08145e-30 0)
(2.9 -1.00054e-30 0)
(2.9 -1.39343e-31 0)
(2.9 -1.91479e-32 0)
(2.9 -2.59861e-33 0)
(2.9 -3.4858e-34 0)
(2.9 -4.6252e-35 0)
(2.9 -6.07463e-36 0)
(2.9 -7.90203e-37 0)
(2.9 -1.01866e-37 0)
(2.9 -1.30202e-38 0)
(2.9 -1.65085e-39 0)
(2.9 -2.07724e-40 0)
(2.9 -2.59495e-41 0)
(2.9 -3.21953e-42 0)
(2.9 -3.96852e-43 0)
(2.9 -4.86153e-44 0)
(2.9 -5.92043e-45 0)
(2.9 -7.1695e-46 0)
(2.9 -8.63555e-47 0)
(2.9 -1.03481e-47 0)
(2.9 -1.23395e-48 0)
(2.9 -1.4645e-49 0)
(2.9 -1.7303e-50 0)
(2.9 -2.0356e-51 0)
(2.9 -2.69882e-52 0)
(2.9 3.25435e-17 0)
(2.9 6.5617e-17 0)
(2.9 4.98092e-17 0)
(2.9 2.51751e-17 0)
(2.9 9.90323e-18 0)
(2.9 3.26529e-18 0)
(2.9 9.42219e-19 0)
(2.9 2.44709e-19 0)
(2.9 5.83317e-20 0)
(2.9 1.29457e-20 0)
(2.9 2.70406e-21 0)
(2.9 5.36108e-22 0)
(2.9 -4.05149e-17 0)
(2.9 -1.1578e-16 0)
(2.9 -1.18242e-16 0)
(2.9 -7.38931e-17 0)
(2.9 -3.40638e-17 0)
(2.9 -1.27059e-17 0)
(2.9 -4.04763e-18 0)
(2.9 -1.14025e-18 0)
(2.9 -2.90954e-19 0)
(2.9 -6.84232e-20 0)
(2.9 -1.5024e-20 0)
(2.9 -3.11117e-21 0)
(2.9 -6.12436e-22 0)
(2.9 -1.15336e-22 0)
(2.9 -2.08881e-23 0)
(2.9 -3.65381e-24 0)
(2.9 -6.19558e-25 0)
(2.9 -1.02152e-25 0)
(2.9 -1.64204e-26 0)
(2.9 -2.57919e-27 0)
(2.9 -3.96648e-28 0)
(2.9 -5.9828e-29 0)
(2.9 -8.86425e-30 0)
(2.9 -1.29183e-30 0)
(2.9 -1.85404e-31 0)
(2.9 -2.62329e-32 0)
(2.9 -3.66276e-33 0)
(2.9 -5.05107e-34 0)
(2.9 -6.88512e-35 0)
(2.9 -9.28333e-36 0)
(2.9 -1.23892e-36 0)
(2.9 -1.63751e-37 0)
(2.9 -2.14469e-38 0)
(2.9 -2.78486e-39 0)
(2.9 -3.5867e-40 0)
(2.9 -4.58381e-41 0)
(2.9 -5.81522e-42 0)
(2.9 -7.32608e-43 0)
(2.9 -9.1683e-44 0)
(2.9 -1.14013e-44 0)
(2.9 -1.40926e-45 0)
(2.9 -1.73189e-46 0)
(2.9 -2.11665e-47 0)
(2.9 -2.57326e-48 0)
(2.9 -3.11256e-49 0)
(2.9 -3.74666e-50 0)
(2.9 -4.48914e-51 0)
(2.9 -6.07378e-52 0)
(2.9 1.36191e-17 0)
(2.9 3.03345e-17 0)
(2.9 2.48097e-17 0)
(2.9 1.34235e-17 0)
(2.9 5.62733e-18 0)
(2.9 1.9699e-18 0)
(2.9 6.01507e-19 0)
(2.9 1.64827e-19 0)
(2.9 4.1345e-20 0)
(2.9 9.63255e-21 0)
(2.9 2.10758e-21 0)
(2.9 4.36822e-22 0)
(2.9 -1.78054e-17 0)
(2.9 -5.25889e-17 0)
(2.9 -5.69289e-17 0)
(2.9 -3.78519e-17 0)
(2.9 -1.85536e-17 0)
(2.9 -7.34395e-18 0)
(2.9 -2.47665e-18 0)
(2.9 -7.36756e-19 0)
(2.9 -1.98041e-19 0)
(2.9 -4.89491e-20 0)
(2.9 -1.1272e-20 0)
(2.9 -2.44314e-21 0)
(2.9 -5.02441e-22 0)
(2.9 -9.86821e-23 0)
(2.9 -1.86091e-23 0)
(2.9 -3.38436e-24 0)
(2.9 -5.95816e-25 0)
(2.9 -1.01862e-25 0)
(2.9 -1.69573e-26 0)
(2.9 -2.7553e-27 0)
(2.9 -4.37866e-28 0)
(2.9 -6.81795e-29 0)
(2.9 -1.04182e-29 0)
(2.9 -1.56449e-30 0)
(2.9 -2.31172e-31 0)
(2.9 -3.36485e-32 0)
(2.9 -4.82951e-33 0)
(2.9 -6.84133e-34 0)
(2.9 -9.57275e-35 0)
(2.9 -1.32408e-35 0)
(2.9 -1.81164e-36 0)
(2.9 -2.45345e-37 0)
(2.9 -3.29062e-38 0)
(2.9 -4.37321e-39 0)
(2.9 -5.76177e-40 0)
(2.9 -7.529e-41 0)
(2.9 -9.76164e-42 0)
(2.9 -1.25625e-42 0)
(2.9 -1.6053e-43 0)
(2.9 -2.03752e-44 0)
(2.9 -2.56948e-45 0)
(2.9 -3.22043e-46 0)
(2.9 -4.01257e-47 0)
(2.9 -4.97143e-48 0)
(2.9 -6.12618e-49 0)
(2.9 -7.51011e-50 0)
(2.9 -9.16131e-51 0)
(2.9 -1.2645e-51 0)
(2.9 5.66292e-18 0)
(2.9 1.38726e-17 0)
(2.9 1.21666e-17 0)
(2.9 7.01666e-18 0)
(2.9 3.12261e-18 0)
(2.9 1.15651e-18 0)
(2.9 3.72523e-19 0)
(2.9 1.07399e-19 0)
(2.9 2.82762e-20 0)
(2.9 6.89957e-21 0)
(2.9 1.57792e-21 0)
(2.9 3.4122e-22 0)
(2.9 -7.76801e-18 0)
(2.9 -2.36873e-17 0)
(2.9 -2.70781e-17 0)
(2.9 -1.90766e-17 0)
(2.9 -9.90285e-18 0)
(2.9 -4.14423e-18 0)
(2.9 -1.47452e-18 0)
(2.9 -4.61779e-19 0)
(2.9 -1.30394e-19 0)
(2.9 -3.37871e-20 0)
(2.9 -8.14093e-21 0)
(2.9 -1.84289e-21 0)
(2.9 -3.95169e-22 0)
(2.9 -8.07975e-23 0)
(2.9 -1.58383e-23 0)
(2.9 -2.99012e-24 0)
(2.9 -5.4575e-25 0)
(2.9 -9.66141e-26 0)
(2.9 -1.66358e-26 0)
(2.9 -2.7929e-27 0)
(2.9 -4.58136e-28 0)
(2.9 -7.35638e-29 0)
(2.9 -1.15819e-29 0)
(2.9 -1.79047e-30 0)
(2.9 -2.72141e-31 0)
(2.9 -4.0716e-32 0)
(2.9 -6.0025e-33 0)
(2.9 -8.72783e-34 0)
(2.9 -1.25273e-34 0)
(2.9 -1.77634e-35 0)
(2.9 -2.49011e-36 0)
(2.9 -3.45316e-37 0)
(2.9 -4.73999e-38 0)
(2.9 -6.44378e-39 0)
(2.9 -8.68007e-40 0)
(2.9 -1.15912e-40 0)
(2.9 -1.53512e-41 0)
(2.9 -2.01715e-42 0)
(2.9 -2.63074e-43 0)
(2.9 -3.40652e-44 0)
(2.9 -4.38104e-45 0)
(2.9 -5.59767e-46 0)
(2.9 -7.10761e-47 0)
(2.9 -8.97097e-48 0)
(2.9 -1.12581e-48 0)
(2.9 -1.40506e-49 0)
(2.9 -1.74442e-50 0)
(2.9 -2.45546e-51 0)
(2.9 2.34225e-18 0)
(2.9 6.28527e-18 0)
(2.9 5.88667e-18 0)
(2.9 3.60503e-18 0)
(2.9 1.69735e-18 0)
(2.9 6.63069e-19 0)
(2.9 2.24679e-19 0)
(2.9 6.79786e-20 0)
(2.9 1.87419e-20 0)
(2.9 4.77944e-21 0)
(2.9 1.14029e-21 0)
(2.9 2.56813e-22 0)
(2.9 -3.368e-18 0)
(2.9 -1.05928e-17 0)
(2.9 -1.27447e-17 0)
(2.9 -9.47925e-18 0)
(2.9 -5.19324e-18 0)
(2.9 -2.29032e-18 0)
(2.9 -8.57196e-19 0)
(2.9 -2.81838e-19 0)
(2.9 -8.33933e-20 0)
(2.9 -2.26013e-20 0)
(2.9 -5.68602e-21 0)
(2.9 -1.34176e-21 0)
(2.9 -2.99451e-22 0)
(2.9 -6.36334e-23 0)
(2.9 -1.29465e-23 0)
(2.9 -2.5336e-24 0)
(2.9 -4.78778e-25 0)
(2.9 -8.7657e-26 0)
(2.9 -1.55934e-26 0)
(2.9 -2.70192e-27 0)
(2.9 -4.57012e-28 0)
(2.9 -7.56019e-29 0)
(2.9 -1.22524e-29 0)
(2.9 -1.94823e-30 0)
(2.9 -3.04351e-31 0)
(2.9 -4.67676e-32 0)
(2.9 -7.07651e-33 0)
(2.9 -1.05541e-33 0)
(2.9 -1.55288e-34 0)
(2.9 -2.25588e-35 0)
(2.9 -3.238e-36 0)
(2.9 -4.59529e-37 0)
(2.9 -6.45197e-38 0)
(2.9 -8.96728e-39 0)
(2.9 -1.23438e-39 0)
(2.9 -1.68369e-40 0)
(2.9 -2.27666e-41 0)
(2.9 -3.05307e-42 0)
(2.9 -4.06208e-43 0)
(2.9 -5.36398e-44 0)
(2.9 -7.03232e-45 0)
(2.9 -9.15632e-46 0)
(2.9 -1.18435e-46 0)
(2.9 -1.52229e-47 0)
(2.9 -1.94484e-48 0)
(2.9 -2.47027e-49 0)
(2.9 -3.12034e-50 0)
(2.9 -4.47784e-51 0)
(2.9 9.6452e-19 0)
(2.9 2.82467e-18 0)
(2.9 2.81485e-18 0)
(2.9 1.82444e-18 0)
(2.9 9.06062e-19 0)
(2.9 3.72315e-19 0)
(2.9 1.32382e-19 0)
(2.9 4.19383e-20 0)
(2.9 1.20828e-20 0)
(2.9 3.2141e-21 0)
(2.9 7.98553e-22 0)
(2.9 1.87e-22 0)
(2.9 -1.4525e-18 0)
(2.9 -4.70742e-18 0)
(2.9 -5.94335e-18 0)
(2.9 -4.6522e-18 0)
(2.9 -2.68161e-18 0)
(2.9 -1.24273e-18 0)
(2.9 -4.87962e-19 0)
(2.9 -1.68028e-19 0)
(2.9 -5.1981e-20 0)
(2.9 -1.47047e-20 0)
(2.9 -3.85528e-21 0)
(2.9 -9.46659e-22 0)
(2.9 -2.19537e-22 0)
(2.9 -4.84116e-23 0)
(2.9 -1.02085e-23 0)
(2.9 -2.06813e-24 0)
(2.9 -4.04137e-25 0)
(2.9 -7.64336e-26 0)
(2.9 -1.40319e-26 0)
(2.9 -2.50684e-27 0)
(2.9 -4.36796e-28 0)
(2.9 -7.43742e-29 0)
(2.9 -1.23968e-29 0)
(2.9 -2.02585e-30 0)
(2.9 -3.25022e-31 0)
(2.9 -5.1258e-32 0)
(2.9 -7.95498e-33 0)
(2.9 -1.21613e-33 0)
(2.9 -1.83309e-34 0)
(2.9 -2.72652e-35 0)
(2.9 -4.00486e-36 0)
(2.9 -5.81327e-37 0)
(2.9 -8.34423e-38 0)
(2.9 -1.18506e-38 0)
(2.9 -1.66617e-39 0)
(2.9 -2.32027e-40 0)
(2.9 -3.20186e-41 0)
(2.9 -4.38023e-42 0)
(2.9 -5.94289e-43 0)
(2.9 -7.99959e-44 0)
(2.9 -1.0687e-44 0)
(2.9 -1.41746e-45 0)
(2.9 -1.86705e-46 0)
(2.9 -2.443e-47 0)
(2.9 -3.17633e-48 0)
(2.9 -4.10464e-49 0)
(2.9 -5.27349e-50 0)
(2.9 -7.71294e-51 0)
(2.9 3.95716e-19 0)
(2.9 1.26044e-18 0)
(2.9 1.33209e-18 0)
(2.9 9.11085e-19 0)
(2.9 4.7597e-19 0)
(2.9 2.05224e-19 0)
(2.9 7.63981e-20 0)
(2.9 2.52895e-20 0)
(2.9 7.59948e-21 0)
(2.9 2.10496e-21 0)
(2.9 5.43736e-22 0)
(2.9 1.32193e-22 0)
(2.9 -6.23513e-19 0)
(2.9 -2.08049e-18 0)
(2.9 -2.74911e-18 0)
(2.9 -2.25827e-18 0)
(2.9 -1.36584e-18 0)
(2.9 -6.6343e-19 0)
(2.9 -2.72642e-19 0)
(2.9 -9.8109e-20 0)
(2.9 -3.16679e-20 0)
(2.9 -9.33309e-21 0)
(2.9 -2.5456e-21 0)
(2.9 -6.49383e-22 0)
(2.9 -1.56251e-22 0)
(2.9 -3.57061e-23 0)
(2.9 -7.79342e-24 0)
(2.9 -1.63248e-24 0)
(2.9 -3.295e-25 0)
(2.9 -6.43054e-26 0)
(2.9 -1.21707e-26 0)
(2.9 -2.2397e-27 0)
(2.9 -4.0165e-28 0)
(2.9 -7.03331e-29 0)
(2.9 -1.20474e-29 0)
(2.9 -2.02179e-30 0)
(2.9 -3.32886e-31 0)
(2.9 -5.38424e-32 0)
(2.9 -8.56481e-33 0)
(2.9 -1.3413e-33 0)
(2.9 -2.06992e-34 0)
(2.9 -3.15049e-35 0)
(2.9 -4.73298e-36 0)
(2.9 -7.02323e-37 0)
(2.9 -1.03008e-37 0)
(2.9 -1.49417e-38 0)
(2.9 -2.1447e-39 0)
(2.9 -3.04789e-40 0)
(2.9 -4.29046e-41 0)
(2.9 -5.98515e-42 0)
(2.9 -8.2774e-43 0)
(2.9 -1.13535e-43 0)
(2.9 -1.54503e-44 0)
(2.9 -2.08671e-45 0)
(2.9 -2.798e-46 0)
(2.9 -3.7258e-47 0)
(2.9 -4.92833e-48 0)
(2.9 -6.47742e-49 0)
(2.9 -8.46175e-50 0)
(2.9 -1.26099e-50 0)
(2.9 1.61845e-19 0)
(2.9 5.58917e-19 0)
(2.9 6.24615e-19 0)
(2.9 4.49604e-19 0)
(2.9 2.46484e-19 0)
(2.9 1.11267e-19 0)
(2.9 4.32785e-20 0)
(2.9 1.49412e-20 0)
(2.9 4.67481e-21 0)
(2.9 1.34614e-21 0)
(2.9 3.60983e-22 0)
(2.9 9.09885e-23 0)
(2.9 -2.66568e-19 0)
(2.9 -9.15008e-19 0)
(2.9 -1.26241e-18 0)
(2.9 -1.08554e-18 0)
(2.9 -6.8722e-19 0)
(2.9 -3.49061e-19 0)
(2.9 -1.49815e-19 0)
(2.9 -5.62243e-20 0)
(2.9 -1.89007e-20 0)
(2.9 -5.7934e-21 0)
(2.9 -1.64124e-21 0)
(2.9 -4.3432e-22 0)
(2.9 -1.08278e-22 0)
(2.9 -2.56079e-23 0)
(2.9 -5.77843e-24 0)
(2.9 -1.25009e-24 0)
(2.9 -2.6034e-25 0)
(2.9 -5.2376e-26 0)
(2.9 -1.02101e-26 0)
(2.9 -1.93364e-27 0)
(2.9 -3.56592e-28 0)
(2.9 -6.41659e-29 0)
(2.9 -1.12864e-29 0)
(2.9 -1.9437e-30 0)
(2.9 -3.28204e-31 0)
(2.9 -5.44086e-32 0)
(2.9 -8.86555e-33 0)
(2.9 -1.42141e-33 0)
(2.9 -2.24454e-34 0)
(2.9 -3.49391e-35 0)
(2.9 -5.36563e-36 0)
(2.9 -8.13533e-37 0)
(2.9 -1.21862e-37 0)
(2.9 -1.80457e-38 0)
(2.9 -2.64325e-39 0)
(2.9 -3.83175e-40 0)
(2.9 -5.50003e-41 0)
(2.9 -7.82062e-42 0)
(2.9 -1.10208e-42 0)
(2.9 -1.53976e-43 0)
(2.9 -2.13366e-44 0)
(2.9 -2.93345e-45 0)
(2.9 -4.00276e-46 0)
(2.9 -5.42248e-47 0)
(2.9 -7.29493e-48 0)
(2.9 -9.74871e-49 0)
(2.9 -1.29454e-49 0)
(2.9 -1.96506e-50 0)
(2.9 6.60178e-20 0)
(2.9 2.46461e-19 0)
(2.9 2.90477e-19 0)
(2.9 2.19524e-19 0)
(2.9 1.26015e-19 0)
(2.9 5.94364e-20 0)
(2.9 2.411e-20 0)
(2.9 8.66605e-21 0)
(2.9 2.81864e-21 0)
(2.9 8.42538e-22 0)
(2.9 2.34228e-22 0)
(2.9 6.11304e-23 0)
(2.9 -1.13554e-19 0)
(2.9 -4.00671e-19 0)
(2.9 -5.75947e-19 0)
(2.9 -5.17255e-19 0)
(2.9 -3.41997e-19 0)
(2.9 -1.81273e-19 0)
(2.9 -8.10955e-20 0)
(2.9 -3.16833e-20 0)
(2.9 -1.10738e-20 0)
(2.9 -3.52463e-21 0)
(2.9 -1.0356e-21 0)
(2.9 -2.83896e-22 0)
(2.9 -7.32386e-23 0)
(2.9 -1.79048e-23 0)
(2.9 -4.17221e-24 0)
(2.9 -9.31208e-25 0)
(2.9 -1.99898e-25 0)
(2.9 -4.14182e-26 0)
(2.9 -8.30864e-27 0)
(2.9 -1.61802e-27 0)
(2.9 -3.06602e-28 0)
(2.9 -5.665e-29 0)
(2.9 -1.02249e-29 0)
(2.9 -1.80578e-30 0)
(2.9 -3.12502e-31 0)
(2.9 -5.30642e-32 0)
(2.9 -8.85173e-33 0)
(2.9 -1.45212e-33 0)
(2.9 -2.34507e-34 0)
(2.9 -3.73144e-35 0)
(2.9 -5.85493e-36 0)
(2.9 -9.06611e-37 0)
(2.9 -1.38636e-37 0)
(2.9 -2.0949e-38 0)
(2.9 -3.13e-39 0)
(2.9 -4.62651e-40 0)
(2.9 -6.76885e-41 0)
(2.9 -9.80692e-42 0)
(2.9 -1.40766e-42 0)
(2.9 -2.00259e-43 0)
(2.9 -2.82476e-44 0)
(2.9 -3.95203e-45 0)
(2.9 -5.48603e-46 0)
(2.9 -7.55842e-47 0)
(2.9 -1.03388e-47 0)
(2.9 -1.40441e-48 0)
(2.9 -1.89518e-49 0)
(2.9 -2.92958e-50 0)
(2.9 2.68684e-20 0)
(2.9 1.08139e-19 0)
(2.9 1.3409e-19 0)
(2.9 1.06162e-19 0)
(2.9 6.36829e-20 0)
(2.9 3.13258e-20 0)
(2.9 1.32296e-20 0)
(2.9 4.943e-21 0)
(2.9 1.66882e-21 0)
(2.9 5.17118e-22 0)
(2.9 1.48845e-22 0)
(2.9 4.01748e-23 0)
(2.9 -4.82172e-20 0)
(2.9 -1.7476e-19 0)
(2.9 -2.61226e-19 0)
(2.9 -2.44525e-19 0)
(2.9 -1.68516e-19 0)
(2.9 -9.30328e-20 0)
(2.9 -4.33048e-20 0)
(2.9 -1.75838e-20 0)
(2.9 -6.37988e-21 0)
(2.9 -2.10555e-21 0)
(2.9 -6.40754e-22 0)
(2.9 -1.81737e-22 0)
(2.9 -4.84571e-23 0)
(2.9 -1.2232e-23 0)
(2.9 -2.94035e-24 0)
(2.9 -6.76394e-25 0)
(2.9 -1.49526e-25 0)
(2.9 -3.18794e-26 0)
(2.9 -6.57548e-27 0)
(2.9 -1.31567e-27 0)
(2.9 -2.5598e-28 0)
(2.9 -4.85304e-29 0)
(2.9 -8.98225e-30 0)
(2.9 -1.62571e-30 0)
(2.9 -2.88164e-31 0)
(2.9 -5.00908e-32 0)
(2.9 -8.54928e-33 0)
(2.9 -1.43428e-33 0)
(2.9 -2.36759e-34 0)
(2.9 -3.849e-35 0)
(2.9 -6.16772e-36 0)
(2.9 -9.74926e-37 0)
(2.9 -1.52124e-37 0)
(2.9 -2.34471e-38 0)
(2.9 -3.57197e-39 0)
(2.9 -5.38146e-40 0)
(2.9 -8.02216e-41 0)
(2.9 -1.18384e-41 0)
(2.9 -1.73023e-42 0)
(2.9 -2.50556e-43 0)
(2.9 -3.5964e-44 0)
(2.9 -5.11866e-45 0)
(2.9 -7.22635e-46 0)
(2.9 -1.01227e-46 0)
(2.9 -1.40743e-47 0)
(2.9 -1.94282e-48 0)
(2.9 -2.66356e-49 0)
(2.9 -4.19178e-50 0)
(2.9 1.0914e-20 0)
(2.9 4.72357e-20 0)
(2.9 6.14855e-20 0)
(2.9 5.0896e-20 0)
(2.9 3.1846e-20 0)
(2.9 1.63098e-20 0)
(2.9 7.15992e-21 0)
(2.9 2.77678e-21 0)
(2.9 9.71789e-22 0)
(2.9 3.11766e-22 0)
(2.9 9.28012e-23 0)
(2.9 2.58755e-23 0)
(2.9 -2.04146e-20 0)
(2.9 -7.59539e-20 0)
(2.9 -1.17853e-19 0)
(2.9 -1.14768e-19 0)
(2.9 -8.22903e-20 0)
(2.9 -4.72364e-20 0)
(2.9 -2.28406e-20 0)
(2.9 -9.62414e-21 0)
(2.9 -3.61973e-21 0)
(2.9 -1.23704e-21 0)
(2.9 -3.89414e-22 0)
(2.9 -1.14138e-22 0)
(2.9 -3.14197e-23 0)
(2.9 -8.18083e-24 0)
(2.9 -2.02665e-24 0)
(2.9 -4.80064e-25 0)
(2.9 -1.09193e-25 0)
(2.9 -2.39351e-26 0)
(2.9 -5.07214e-27 0)
(2.9 -1.04197e-27 0)
(2.9 -2.08004e-28 0)
(2.9 -4.04363e-29 0)
(2.9 -7.66965e-30 0)
(2.9 -1.42175e-30 0)
(2.9 -2.57971e-31 0)
(2.9 -4.58793e-32 0)
(2.9 -8.00757e-33 0)
(2.9 -1.37312e-33 0)
(2.9 -2.31575e-34 0)
(2.9 -3.8446e-35 0)
(2.9 -6.28873e-36 0)
(2.9 -1.01431e-36 0)
(2.9 -1.61431e-37 0)
(2.9 -2.53691e-38 0)
(2.9 -3.93909e-39 0)
(2.9 -6.04655e-40 0)
(2.9 -9.18066e-41 0)
(2.9 -1.37946e-41 0)
(2.9 -2.05219e-42 0)
(2.9 -3.02403e-43 0)
(2.9 -4.4156e-44 0)
(2.9 -6.39138e-45 0)
(2.9 -9.17394e-46 0)
(2.9 -1.30623e-46 0)
(2.9 -1.84552e-47 0)
(2.9 -2.58814e-48 0)
(2.9 -3.60396e-49 0)
(2.9 -5.77286e-50 0)
(2.9 4.4259e-21 0)
(2.9 2.05494e-20 0)
(2.9 2.80227e-20 0)
(2.9 2.42083e-20 0)
(2.9 1.57733e-20 0)
(2.9 8.39754e-21 0)
(2.9 3.82647e-21 0)
(2.9 1.53827e-21 0)
(2.9 5.57348e-22 0)
(2.9 1.84904e-22 0)
(2.9 5.68554e-23 0)
(2.9 1.63595e-23 0)
(2.9 -8.6205e-21 0)
(2.9 -3.2904e-20 0)
(2.9 -5.2913e-20 0)
(2.9 -5.35147e-20 0)
(2.9 -3.98556e-20 0)
(2.9 -2.37498e-20 0)
(2.9 -1.19116e-20 0)
(2.9 -5.20107e-21 0)
(2.9 -2.0251e-21 0)
(2.9 -7.1576e-22 0)
(2.9 -2.32805e-22 0)
(2.9 -7.04378e-23 0)
(2.9 -1.99977e-23 0)
(2.9 -5.36552e-24 0)
(2.9 -1.36859e-24 0)
(2.9 -3.3353e-25 0)
(2.9 -7.79914e-26 0)
(2.9 -1.7563e-26 0)
(2.9 -3.82096e-27 0)
(2.9 -8.05327e-28 0)
(2.9 -1.64839e-28 0)
(2.9 -3.28377e-29 0)
(2.9 -6.37891e-30 0)
(2.9 -1.2104e-30 0)
(2.9 -2.24692e-31 0)
(2.9 -4.08632e-32 0)
(2.9 -7.28966e-33 0)
(2.9 -1.27706e-33 0)
(2.9 -2.19936e-34 0)
(2.9 -3.72718e-35 0)
(2.9 -6.22071e-36 0)
(2.9 -1.02335e-36 0)
(2.9 -1.66058e-37 0)
(2.9 -2.65974e-38 0)
(2.9 -4.20766e-39 0)
(2.9 -6.57836e-40 0)
(2.9 -1.01697e-40 0)
(2.9 -1.55537e-41 0)
(2.9 -2.35451e-42 0)
(2.9 -3.52939e-43 0)
(2.9 -5.24099e-44 0)
(2.9 -7.71275e-45 0)
(2.9 -1.12524e-45 0)
(2.9 -1.62807e-46 0)
(2.9 -2.33686e-47 0)
(2.9 -3.32853e-48 0)
(2.9 -4.70649e-49 0)
(2.9 -7.67151e-50 0)
(2.9 1.79226e-21 0)
(2.9 8.90703e-21 0)
(2.9 1.2701e-20 0)
(2.9 1.14316e-20 0)
(2.9 7.74422e-21 0)
(2.9 4.27974e-21 0)
(2.9 2.02147e-21 0)
(2.9 8.41313e-22 0)
(2.9 3.15213e-22 0)
(2.9 1.08021e-22 0)
(2.9 3.42755e-23 0)
(2.9 1.01677e-23 0)
(2.9 -3.6314e-21 0)
(2.9 -1.42121e-20 0)
(2.9 -2.36514e-20 0)
(2.9 -2.4804e-20 0)
(2.9 -1.91585e-20 0)
(2.9 -1.18343e-20 0)
(2.9 -6.14796e-21 0)
(2.9 -2.77814e-21 0)
(2.9 -1.11845e-21 0)
(2.9 -4.08365e-22 0)
(2.9 -1.37087e-22 0)
(2.9 -4.2772e-23 0)
(2.9 -1.25118e-23 0)
(2.9 -3.45612e-24 0)
(2.9 -9.06889e-25 0)
(2.9 -2.27197e-25 0)
(2.9 -5.45753e-26 0)
(2.9 -1.26165e-26 0)
(2.9 -2.81596e-27 0)
(2.9 -6.08519e-28 0)
(2.9 -1.27631e-28 0)
(2.9 -2.60386e-29 0)
(2.9 -5.17738e-30 0)
(2.9 -1.00505e-30 0)
(2.9 -1.90779e-31 0)
(2.9 -3.54611e-32 0)
(2.9 -6.46261e-33 0)
(2.9 -1.15612e-33 0)
(2.9 -2.03236e-34 0)
(2.9 -3.51415e-35 0)
(2.9 -5.98203e-36 0)
(2.9 -1.00333e-36 0)
(2.9 -1.65931e-37 0)
(2.9 -2.70775e-38 0)
(2.9 -4.3628e-39 0)
(2.9 -6.94478e-40 0)
(2.9 -1.09277e-40 0)
(2.9 -1.70061e-41 0)
(2.9 -2.61876e-42 0)
(2.9 -3.99206e-43 0)
(2.9 -6.02691e-44 0)
(2.9 -9.01487e-45 0)
(2.9 -1.33646e-45 0)
(2.9 -1.96441e-46 0)
(2.9 -2.86376e-47 0)
(2.9 -4.14192e-48 0)
(2.9 -5.9456e-49 0)
(2.9 -9.85942e-50 0)
(2.9 7.24884e-22 0)
(2.9 3.84782e-21 0)
(2.9 5.72749e-21 0)
(2.9 5.36253e-21 0)
(2.9 3.77163e-21 0)
(2.9 2.16072e-21 0)
(2.9 1.0566e-21 0)
(2.9 4.54725e-22 0)
(2.9 1.75983e-22 0)
(2.9 6.22324e-23 0)
(2.9 2.03572e-23 0)
(2.9 6.22015e-24 0)
(2.9 -1.5263e-21 0)
(2.9 -6.12182e-21 0)
(2.9 -1.05289e-20 0)
(2.9 -1.14335e-20 0)
(2.9 -9.14596e-21 0)
(2.9 -5.84835e-21 0)
(2.9 -3.143e-21 0)
(2.9 -1.46806e-21 0)
(2.9 -6.10403e-22 0)
(2.9 -2.29982e-22 0)
(2.9 -7.96024e-23 0)
(2.9 -2.5587e-23 0)
(2.9 -7.70498e-24 0)
(2.9 -2.1893e-24 0)
(2.9 -5.90503e-25 0)
(2.9 -1.51957e-25 0)
(2.9 -3.74696e-26 0)
(2.9 -8.88611e-27 0)
(2.9 -2.0334e-27 0)
(2.9 -4.50241e-28 0)
(2.9 -9.67069e-29 0)
(2.9 -2.0194e-29 0)
(2.9 -4.10766e-30 0)
(2.9 -8.1534e-31 0)
(2.9 -1.58178e-31 0)
(2.9 -3.00355e-32 0)
(2.9 -5.58947e-33 0)
(2.9 -1.02062e-33 0)
(2.9 -1.83058e-34 0)
(2.9 -3.22824e-35 0)
(2.9 -5.60262e-36 0)
(2.9 -9.57691e-37 0)
(2.9 -1.61362e-37 0)
(2.9 -2.68183e-38 0)
(2.9 -4.39942e-39 0)
(2.9 -7.12789e-40 0)
(2.9 -1.14124e-40 0)
(2.9 -1.80662e-41 0)
(2.9 -2.82913e-42 0)
(2.9 -4.38461e-43 0)
(2.9 -6.72806e-44 0)
(2.9 -1.0226e-44 0)
(2.9 -1.54009e-45 0)
(2.9 -2.29913e-46 0)
(2.9 -3.40335e-47 0)
(2.9 -4.99703e-48 0)
(2.9 -7.28038e-49 0)
(2.9 -1.22796e-49 0)
(2.9 2.92871e-22 0)
(2.9 1.65718e-21 0)
(2.9 2.57078e-21 0)
(2.9 2.50023e-21 0)
(2.9 1.82326e-21 0)
(2.9 1.08146e-21 0)
(2.9 5.46862e-22 0)
(2.9 2.43103e-22 0)
(2.9 9.70834e-23 0)
(2.9 3.53923e-23 0)
(2.9 1.19246e-23 0)
(2.9 3.74969e-24 0)
(2.9 -6.40164e-22 0)
(2.9 -2.63031e-21 0)
(2.9 -4.66956e-21 0)
(2.9 -5.24357e-21 0)
(2.9 -4.33834e-21 0)
(2.9 -2.86818e-21 0)
(2.9 -1.59267e-21 0)
(2.9 -7.6809e-22 0)
(2.9 -3.29483e-22 0)
(2.9 -1.27973e-22 0)
(2.9 -4.56268e-23 0)
(2.9 -1.50957e-23 0)
(2.9 -4.67549e-24 0)
(2.9 -1.36545e-24 0)
(2.9 -3.78278e-25 0)