/*--------------------------------*- C++ -*----------------------------------*\
| =========                 |                                                 |
| \\      /  F ield         | OpenFOAM: The Open Source CFD Toolbox           |
|  \\    /   O peration     | Version:  2412                                  |
|   \\  /    A nd           | Website:  www.openfoam.com                      |
|    \\/     M anipulation  |                                                 |
\*---------------------------------------------------------------------------*/
FoamFile
{
    version     2.0;
    format      ascii;
    arch        "LSB;label=32;scalar=64";
    class       volScalarField;
    location    "0.0546138";
    object      rho;
}
// * * * * * * * * * * * * * * * * * * * * * * * * * * * * * * * * * * * * * //

dimensions      [1 -3 0 0 0 0 0];

internalField   nonuniform List<scalar> 
100
(
1.05678
1.05425
1.05285
1.02663
0.987063
0.957828
0.943789
0.96411
1.02241
1.0626
1.06602
1.04105
1.01154
1.00369
1.01641
1.0368
1.04075
1.03029
1.03099
1.03279
0.820052
0.557475
0.522806
0.527907
0.542467
0.595038
0.617247
0.621187
0.624856
0.625931
0.601177
0.545965
0.524772
0.525102
0.529124
0.533979
0.538727
0.542278
0.541475
0.537903
0.539463
0.543043
0.547126
0.551942
0.558942
0.566572
0.571794
0.575841
0.579501
0.578057
0.563771
0.550314
0.547217
0.549688
0.553196
0.556953
0.561256
0.566678
0.5716
0.575642
0.576247
0.57037
0.564295
0.562279
0.562651
0.563897
0.565327
0.566101
0.566364
0.566808
0.567739
0.56932
0.570865
0.572546
0.573343
0.573604
0.572474
0.569204
0.564468
0.558494
0.551416
0.539836
0.525552
0.509554
0.493735
0.482295
0.475381
0.472187
0.469835
0.468898
0.468933
0.469041
0.469223
0.46915
0.469412
0.469752
0.470692
0.471563
0.472704
0.473662
)
;

boundaryField
{
    sides
    {
        type            calculated;
        value           nonuniform List<scalar> 2(0.473662 1.05678);
    }
    empty
    {
        type            empty;
    }
}


// ************************************************************************* //
