/*--------------------------------*- C++ -*----------------------------------*\
| =========                 |                                                 |
| \\      /  F ield         | OpenFOAM: The Open Source CFD Toolbox           |
|  \\    /   O peration     | Version:  2412                                  |
|   \\  /    A nd           | Website:  www.openfoam.com                      |
|    \\/     M anipulation  |                                                 |
\*---------------------------------------------------------------------------*/
FoamFile
{
    version     2.0;
    format      ascii;
    arch        "LSB;label=32;scalar=64";
    class       volVectorField;
    location    "8.86493e-05";
    object      U;
}
// * * * * * * * * * * * * * * * * * * * * * * * * * * * * * * * * * * * * * //

dimensions      [0 1 -1 0 0 0 0];

internalField   nonuniform List<vector> 
1800
(
(2.9 -6.20605e-14 0)
(2.9 1.4611e-14 0)
(2.9 5.54095e-14 0)
(2.9 -5.42441e-14 0)
(2.9 -3.37485e-14 0)
(2.9 -1.06289e-13 0)
(2.9 -1.01537e-13 0)
(2.9 -8.61959e-14 0)
(2.9 -4.13659e-14 0)
(2.9 -2.38393e-14 0)
(2.9 -1.40466e-14 0)
(2.9 -6.79827e-14 0)
(2.9 -8.24541e-14 0)
(2.9 -6.60506e-14 0)
(2.9 -7.44366e-14 0)
(2.9 -2.98458e-14 0)
(2.9 -1.63876e-14 0)
(2.9 -2.74303e-14 0)
(2.9 -3.5173e-14 0)
(2.9 -3.26754e-14 0)
(2.9 -3.60504e-14 0)
(2.9 -1.82332e-14 0)
(2.9 -7.00498e-15 0)
(2.9 2.27708e-14 0)
(2.9 -2.15159e-14 0)
(2.9 -7.83088e-14 0)
(2.9 -7.02151e-14 0)
(2.9 -4.16139e-14 0)
(2.9 2.76867e-14 0)
(2.9 6.43201e-14 0)
(2.9 -2.16966e-14 0)
(2.9 4.17819e-16 0)
(2.9 -7.25204e-14 0)
(2.9 -6.04842e-14 0)
(2.9 -1.14533e-14 0)
(2.9 1.03463e-14 0)
(2.9 1.11807e-15 0)
(2.9 1.62539e-14 0)
(2.9 1.02956e-14 0)
(2.9 -2.09986e-14 0)
(2.9 -3.69497e-15 0)
(2.9 4.12332e-14 0)
(2.9 5.7811e-15 0)
(2.9 1.15991e-14 0)
(2.9 -2.82418e-14 0)
(2.9 -4.88171e-14 0)
(2.9 6.71837e-15 0)
(2.9 5.70072e-14 0)
(2.9 2.76059e-14 0)
(2.9 5.50617e-14 0)
(2.9 3.3994e-14 0)
(2.9 -5.75577e-15 0)
(2.9 -7.67553e-15 0)
(2.9 -3.20912e-14 0)
(2.9 1.4963e-14 0)
(2.9 3.32435e-14 0)
(2.9 -4.77386e-14 0)
(2.9 -2.681e-14 0)
(2.9 -6.75474e-14 0)
(2.9 -1.01572e-13 0)
(2.9 -1.20791e-13 0)
(2.9 -2.00408e-15 0)
(2.9 4.56869e-14 0)
(2.9 -2.66816e-14 0)
(2.9 -5.47404e-14 0)
(2.9 -2.05109e-13 0)
(2.9 -2.00086e-13 0)
(2.9 -1.44029e-13 0)
(2.9 -4.6811e-14 0)
(2.9 -3.62063e-14 0)
(2.9 1.20142e-15 0)
(2.9 -1.45001e-13 0)
(2.9 -1.55513e-13 0)
(2.9 -1.33179e-13 0)
(2.9 -6.72031e-14 0)
(2.9 -4.16017e-16 0)
(2.9 -3.27043e-14 0)
(2.9 -8.27821e-14 0)
(2.9 -9.12169e-14 0)
(2.9 -7.15707e-14 0)
(2.9 -9.33534e-14 0)
(2.9 -1.997e-14 0)
(2.9 5.23616e-14 0)
(2.9 2.57991e-14 0)
(2.9 -8.34671e-14 0)
(2.9 -1.82247e-13 0)
(2.9 -1.3803e-13 0)
(2.9 -1.26614e-13 0)
(2.9 2.57269e-14 0)
(2.9 7.25539e-14 0)
(2.9 -6.89561e-14 0)
(2.9 -1.09797e-14 0)
(2.9 -1.33527e-13 0)
(2.9 -1.11217e-13 0)
(2.9 -6.00577e-14 0)
(2.9 -2.09307e-14 0)
(2.9 -1.19317e-14 0)
(2.9 5.23543e-14 0)
(2.9 -1.15305e-14 0)
(2.9 -8.05087e-14 0)
(2.9 -9.39785e-15 0)
(2.9 4.35632e-14 0)
(2.9 1.16013e-14 0)
(2.9 -1.79645e-15 0)
(2.9 -7.71759e-14 0)
(2.9 -1.31507e-13 0)
(2.9 1.8502e-14 0)
(2.9 8.64619e-14 0)
(2.9 1.21461e-13 0)
(2.9 1.60201e-13 0)
(2.9 2.4431e-14 0)
(2.9 -8.28714e-14 0)
(2.9 -5.49556e-14 0)
(2.9 -1.0077e-13 0)
(2.9 2.33185e-14 0)
(2.9 5.19886e-14 0)
(2.9 -4.73702e-14 0)
(2.9 -3.5615e-14 0)
(2.9 -1.46138e-13 0)
(2.9 -2.12731e-13 0)
(2.9 -5.83815e-14 0)
(2.9 -6.39447e-15 0)
(2.9 5.13143e-15 0)
(2.9 -3.61062e-15 0)
(2.9 -1.33287e-14 0)
(2.9 -1.35965e-13 0)
(2.9 -1.61399e-13 0)
(2.9 -7.95862e-14 0)
(2.9 -8.83318e-15 0)
(2.9 -8.64919e-14 0)
(2.9 -1.03896e-13 0)
(2.9 -1.38373e-13 0)
(2.9 -1.08965e-13 0)
(2.9 -9.28947e-14 0)
(2.9 -4.65536e-14 0)
(2.9 5.60241e-14 0)
(2.9 -3.90967e-15 0)
(2.9 -7.68012e-14 0)
(2.9 -2.86106e-14 0)
(2.9 -6.50829e-14 0)
(2.9 -3.17684e-14 0)
(2.9 2.53696e-14 0)
(2.9 1.15024e-13 0)
(2.9 3.98714e-14 0)
(2.9 -8.20744e-14 0)
(2.9 -2.00681e-13 0)
(2.9 -1.10753e-13 0)
(2.9 -6.00617e-14 0)
(2.9 -2.36457e-14 0)
(2.9 -1.47899e-14 0)
(2.9 -5.39262e-14 0)
(2.9 -7.82568e-14 0)
(2.9 -1.29841e-13 0)
(2.9 -1.52766e-13 0)
(2.9 -6.92185e-14 0)
(2.9 -5.74468e-14 0)
(2.9 1.70475e-14 0)
(2.9 3.23515e-14 0)
(2.9 -9.27968e-14 0)
(2.9 -1.50824e-13 0)
(2.9 -3.09793e-14 0)
(2.9 -2.18724e-15 0)
(2.9 2.33914e-14 0)
(2.9 -1.16711e-14 0)
(2.9 -5.06926e-14 0)
(2.9 -6.99475e-14 0)
(2.9 -2.49571e-14 0)
(2.9 5.34293e-14 0)
(2.9 3.77525e-14 0)
(2.9 -3.35573e-15 0)
(2.9 -4.2993e-14 0)
(2.9 -4.48815e-14 0)
(2.9 -5.76072e-14 0)
(2.9 -8.40827e-14 0)
(2.9 -1.3601e-14 0)
(2.9 -3.95889e-15 0)
(2.9 -4.15742e-14 0)
(2.9 -4.89291e-14 0)
(2.9 -1.173e-13 0)
(2.9 -1.43788e-13 0)
(2.9 6.07635e-16 0)
(2.9 -7.41846e-14 0)
(2.9 -1.45342e-14 0)
(2.9 -6.80384e-14 0)
(2.9 -4.54937e-14 0)
(2.9 -5.07731e-14 0)
(2.9 -9.20869e-14 0)
(2.9 -5.83615e-14 0)
(2.9 -2.14932e-14 0)
(2.9 -1.22877e-13 0)
(2.9 -1.4388e-13 0)
(2.9 -1.46683e-13 0)
(2.9 -6.95899e-14 0)
(2.9 -8.08562e-14 0)
(2.9 -1.00039e-13 0)
(2.9 -1.94378e-14 0)
(2.9 -5.63064e-14 0)
(2.9 -2.49286e-14 0)
(2.9 3.47611e-14 0)
(2.9 8.02214e-15 0)
(2.9 7.88496e-14 0)
(2.9 7.00526e-14 0)
(2.9 1.4023e-15 0)
(2.9 3.96765e-15 0)
(2.9 -5.24578e-14 0)
(2.9 -1.00002e-13 0)
(2.9 -1.85438e-14 0)
(2.9 -4.26021e-15 0)
(2.9 4.66673e-15 0)
(2.9 -9.19062e-15 0)
(2.9 -1.04923e-14 0)
(2.9 -2.50373e-14 0)
(2.9 -7.83761e-14 0)
(2.9 -6.42657e-14 0)
(2.9 -6.212e-14 0)
(2.9 -7.42533e-16 0)
(2.9 3.46648e-14 0)
(2.9 1.54251e-14 0)
(2.9 -6.58826e-14 0)
(2.9 -1.26295e-13 0)
(2.9 -6.85534e-14 0)
(2.9 -5.50574e-14 0)
(2.9 -4.15463e-14 0)
(2.9 -4.2859e-14 0)
(2.9 -5.97418e-14 0)
(2.9 -8.4866e-14 0)
(2.9 -2.08533e-14 0)
(2.9 4.03798e-14 0)
(2.9 -6.80995e-14 0)
(2.9 -1.08775e-13 0)
(2.9 -8.48733e-14 0)
(2.9 1.77541e-14 0)
(2.9 -1.86641e-14 0)
(2.9 -1.73415e-14 0)
(2.9 -2.25276e-14 0)
(2.9 -2.78182e-14 0)
(2.9 -6.32046e-15 0)
(2.9 -6.17966e-14 0)
(2.9 3.73684e-15 0)
(2.9 -8.443e-15 0)
(2.9 -3.63816e-14 0)
(2.9 -1.43043e-13 0)
(2.9 -4.37806e-14 0)
(2.9 -1.00316e-13 0)
(2.9 -2.92797e-14 0)
(2.9 -2.83751e-14 0)
(2.9 -5.25176e-14 0)
(2.9 -4.47135e-14 0)
(2.9 -2.73892e-14 0)
(2.9 -7.61419e-14 0)
(2.9 -1.24766e-13 0)
(2.9 -1.45831e-13 0)
(2.9 -4.97937e-14 0)
(2.9 -8.96674e-15 0)
(2.9 -5.35274e-14 0)
(2.9 -1.4959e-13 0)
(2.9 -8.99138e-14 0)
(2.9 -2.21444e-15 0)
(2.9 8.93354e-14 0)
(2.9 6.72164e-14 0)
(2.9 7.74809e-14 0)
(2.9 1.36922e-14 0)
(2.9 -9.48458e-14 0)
(2.9 -9.24216e-14 0)
(2.9 -3.83009e-14 0)
(2.9 -3.81072e-14 0)
(2.9 3.483e-14 0)
(2.9 -3.96032e-14 0)
(2.9 4.22825e-14 0)
(2.9 4.69167e-15 0)
(2.9 8.90752e-15 0)
(2.9 7.02152e-14 0)
(2.9 1.34254e-14 0)
(2.9 3.17631e-14 0)
(2.9 -4.62472e-14 0)
(2.9 -1.8117e-14 0)
(2.9 2.93843e-14 0)
(2.9 -4.06093e-14 0)
(2.9 -5.28984e-14 0)
(2.9 -7.45821e-14 0)
(2.9 -8.16071e-14 0)
(2.9 -7.52534e-14 0)
(2.9 -1.14157e-13 0)
(2.9 -8.58759e-14 0)
(2.9 -5.19949e-14 0)
(2.9 -9.4372e-14 0)
(2.9 -2.87514e-14 0)
(2.9 2.16232e-14 0)
(2.9 -7.37474e-14 0)
(2.9 -6.87744e-14 0)
(2.9 -6.79665e-14 0)
(2.9 6.28049e-14 0)
(2.9 -1.16109e-14 0)
(2.9 -5.40777e-14 0)
(2.9 -6.75307e-14 0)
(2.9 -7.91509e-14 0)
(2.9 2.13429e-14 0)
(2.9 -2.25828e-16 0)
(2.9 3.83774e-14 0)
(2.9 9.68647e-14 0)
(2.9 -6.7457e-14 0)
(2.9 -1.14534e-13 0)
(2.9 -9.16956e-14 0)
(2.9 -8.79843e-14 0)
(2.9 2.01778e-14 0)
(2.9 1.386e-14 0)
(2.9 2.77344e-14 0)
(2.9 1.22194e-14 0)
(2.9 -7.98967e-14 0)
(2.9 -1.13331e-13 0)
(2.9 -1.36828e-13 0)
(2.9 -8.37204e-14 0)
(2.9 -8.86976e-14 0)
(2.9 -2.84702e-14 0)
(2.9 -2.44515e-14 0)
(2.9 -1.26286e-13 0)
(2.9 -4.80021e-14 0)
(2.9 -1.9928e-15 0)
(2.9 5.96053e-14 0)
(2.9 1.72768e-14 0)
(2.9 -4.15158e-14 0)
(2.9 -7.28549e-14 0)
(2.9 -5.45824e-14 0)
(2.9 -5.03859e-14 0)
(2.9 -1.63194e-14 0)
(2.9 2.41613e-14 0)
(2.9 5.92244e-14 0)
(2.9 -8.86527e-16 0)
(2.9 1.17625e-14 0)
(2.9 2.29585e-14 0)
(2.9 -6.02974e-14 0)
(2.9 -1.04591e-14 0)
(2.9 9.85184e-15 0)
(2.9 -8.76412e-16 0)
(2.9 -9.13938e-14 0)
(2.9 -1.23778e-13 0)
(2.9 -9.5305e-14 0)
(2.9 -8.82701e-14 0)
(2.9 -1.35243e-13 0)
(2.9 -5.4885e-14 0)
(2.9 -1.06878e-13 0)
(2.9 -5.9614e-14 0)
(2.9 -6.20357e-14 0)
(2.9 5.56119e-15 0)
(2.9 9.58653e-15 0)
(2.9 7.40375e-15 0)
(2.9 -5.20037e-14 0)
(2.9 -7.65329e-14 0)
(2.9 -1.17132e-13 0)
(2.9 -3.15012e-14 0)
(2.9 3.09693e-14 0)
(2.9 -2.71426e-14 0)
(2.9 -6.51873e-14 0)
(2.9 -1.17864e-13 0)
(2.9 -9.758e-14 0)
(2.9 -5.01834e-14 0)
(2.9 -3.59861e-15 0)
(2.9 4.25329e-14 0)
(2.9 -3.03148e-14 0)
(2.9 3.03453e-14 0)
(2.9 -2.84707e-14 0)
(2.9 -2.54488e-14 0)
(2.9 -1.3377e-13 0)
(2.9 -3.1517e-14 0)
(2.9 8.25744e-14 0)
(2.9 6.63281e-14 0)
(2.9 9.72023e-14 0)
(2.9 5.82617e-14 0)
(2.9 -7.61298e-14 0)
(2.9 -8.98714e-14 0)
(2.9 -8.2381e-14 0)
(2.9 -6.867e-14 0)
(2.9 -1.16358e-13 0)
(2.9 -3.25564e-14 0)
(2.9 -8.56011e-15 0)
(2.9 -7.97355e-14 0)
(2.9 -2.91176e-14 0)
(2.9 -1.51238e-14 0)
(2.9 -3.87434e-14 0)
(2.9 -3.09694e-14 0)
(2.9 -1.36837e-13 0)
(2.9 -9.82013e-14 0)
(2.9 -3.06022e-15 0)
(2.9 -3.74513e-14 0)
(2.9 -3.83157e-14 0)
(2.9 2.69672e-14 0)
(2.9 7.08929e-14 0)
(2.9 3.58187e-15 0)
(2.9 1.67299e-14 0)
(2.9 1.22052e-14 0)
(2.9 -1.02654e-13 0)
(2.9 -2.50849e-15 0)
(2.9 -5.21084e-15 0)
(2.9 -3.37026e-14 0)
(2.9 -1.36791e-13 0)
(2.9 -1.68026e-13 0)
(2.9 -1.53458e-13 0)
(2.9 -8.23843e-14 0)
(2.9 -1.59636e-13 0)
(2.9 -8.72963e-14 0)
(2.9 -8.83049e-14 0)
(2.9 -4.83251e-15 0)
(2.9 1.50135e-14 0)
(2.9 9.17636e-14 0)
(2.9 6.09904e-14 0)
(2.9 -1.71526e-14 0)
(2.9 -7.89972e-14 0)
(2.9 -7.54307e-14 0)
(2.9 -1.39147e-13 0)
(2.9 -4.92343e-14 0)
(2.9 -1.09826e-14 0)
(2.9 -1.08892e-13 0)
(2.9 -7.455e-14 0)
(2.9 -1.12342e-13 0)
(2.9 -1.31638e-13 0)
(2.9 -6.11055e-14 0)
(2.9 -4.12238e-14 0)
(2.9 -3.40595e-14 0)
(2.9 -6.93279e-14 0)
(2.9 -2.03515e-14 0)
(2.9 -1.88689e-14 0)
(2.9 4.85251e-14 0)
(2.9 -1.05263e-13 0)
(2.9 -2.96605e-14 0)
(2.9 -1.18325e-15 0)
(2.9 9.59478e-14 0)
(2.9 1.75829e-13 0)
(2.9 5.42853e-14 0)
(2.9 6.56685e-16 0)
(2.9 -4.98069e-14 0)
(2.9 -3.65412e-14 0)
(2.9 -3.39623e-14 0)
(2.9 -1.1057e-13 0)
(2.9 -1.14289e-13 0)
(2.9 -4.4155e-14 0)
(2.9 -9.13904e-15 0)
(2.9 4.2368e-14 0)
(2.9 8.96508e-15 0)
(2.9 -7.7813e-14 0)
(2.9 -1.04408e-13 0)
(2.9 -8.13675e-14 0)
(2.9 -1.72756e-14 0)
(2.9 5.10091e-14 0)
(2.9 -1.94365e-14 0)
(2.9 7.96382e-16 0)
(2.9 3.54764e-14 0)
(2.9 8.94134e-14 0)
(2.9 5.97314e-14 0)
(2.9 6.00721e-14 0)
(2.9 -3.09457e-15 0)
(2.9 1.04095e-14 0)
(2.9 3.66487e-14 0)
(2.9 1.82296e-14 0)
(2.9 -3.39973e-14 0)
(2.9 -6.76601e-14 0)
(2.9 -7.70421e-14 0)
(2.9 -6.23951e-14 0)
(2.9 3.10905e-14 0)
(2.9 -5.81189e-14 0)
(2.9 -5.49046e-14 0)
(2.9 -5.78397e-14 0)
(2.9 2.02661e-14 0)
(2.9 3.32211e-14 0)
(2.9 7.65094e-14 0)
(2.9 5.42565e-14 0)
(2.9 -1.54688e-14 0)
(2.9 -6.45851e-14 0)
(2.9 -4.25713e-14 0)
(2.9 -6.41183e-14 0)
(2.9 -7.1698e-14 0)
(2.9 3.38221e-15 0)
(2.9 -6.86086e-14 0)
(2.9 -1.06e-13 0)
(2.9 -1.22571e-13 0)
(2.9 -8.58535e-14 0)
(2.9 -3.97965e-14 0)
(2.9 -4.99498e-14 0)
(2.9 -5.61872e-14 0)
(2.9 -4.55751e-14 0)
(2.9 -4.67093e-14 0)
(2.9 1.76391e-14 0)
(2.9 4.79255e-14 0)
(2.9 7.73505e-15 0)
(2.9 -1.83199e-14 0)
(2.9 -5.89279e-14 0)
(2.9 3.43087e-14 0)
(2.9 5.73461e-14 0)
(2.9 -5.54823e-16 0)
(2.9 6.96259e-14 0)
(2.9 -5.62194e-15 0)
(2.9 -2.50661e-14 0)
(2.9 -8.62018e-14 0)
(2.9 -1.38558e-13 0)
(2.9 -1.40395e-13 0)
(2.9 -7.99005e-14 0)
(2.9 1.99098e-14 0)
(2.9 4.58136e-14 0)
(2.9 5.32549e-14 0)
(2.9 -7.06363e-14 0)
(2.9 -1.2643e-13 0)
(2.9 -1.08214e-14 0)
(2.9 6.16181e-14 0)
(2.9 -5.96611e-15 0)
(2.9 -2.96445e-14 0)
(2.9 3.84502e-14 0)
(2.9 3.16272e-14 0)
(2.9 1.17083e-13 0)
(2.9 1.13712e-13 0)
(2.9 1.05405e-13 0)
(2.9 2.61753e-14 0)
(2.9 7.25836e-14 0)
(2.9 8.58244e-15 0)
(2.9 4.4461e-14 0)
(2.9 -1.70395e-14 0)
(2.9 -1.81941e-14 0)
(2.9 4.79106e-15 0)
(2.9 1.56716e-14 0)
(2.9 4.80432e-14 0)
(2.9 5.83858e-14 0)
(2.9 5.075e-14 0)
(2.9 1.3338e-14 0)
(2.9 5.38803e-14 0)
(2.9 9.35465e-14 0)
(2.9 3.68579e-14 0)
(2.9 3.39918e-14 0)
(2.9 2.91617e-14 0)
(2.9 -2.17647e-14 0)
(2.9 -1.65709e-14 0)
(2.9 3.83903e-14 0)
(2.9 2.21879e-14 0)
(2.9 1.41377e-14 0)
(2.9 3.95989e-14 0)
(2.9 -4.86238e-14 0)
(2.9 -8.39412e-14 0)
(2.9 1.98373e-14 0)
(2.9 -3.652e-14 0)
(2.9 -2.82156e-14 0)
(2.9 -2.32398e-15 0)
(2.9 -3.15759e-14 0)
(2.9 -9.01935e-14 0)
(2.9 -1.56977e-14 0)
(2.9 7.21866e-15 0)
(2.9 5.33559e-14 0)
(2.9 5.52873e-14 0)
(2.9 -3.13243e-15 0)
(2.9 -4.52716e-14 0)
(2.9 -9.81813e-14 0)
(2.9 7.28465e-15 0)
(2.9 8.61867e-14 0)
(2.9 1.59297e-14 0)
(2.9 1.59911e-14 0)
(2.9 -5.80973e-14 0)
(2.9 -1.04978e-13 0)
(2.9 -3.59615e-14 0)
(2.9 -1.65728e-14 0)
(2.9 5.69535e-14 0)
(2.9 3.93442e-14 0)
(2.9 1.14715e-13 0)
(2.9 -3.08266e-15 0)
(2.9 -8.80106e-14 0)
(2.9 -4.56585e-14 0)
(2.9 4.54295e-14 0)
(2.9 -4.21909e-14 0)
(2.9 -2.38124e-14 0)
(2.9 -4.17942e-14 0)
(2.9 6.09911e-15 0)
(2.9 6.88841e-14 0)
(2.9 1.18358e-13 0)
(2.9 6.40056e-14 0)
(2.9 2.84159e-14 0)
(2.9 2.03103e-14 0)
(2.9 -4.91904e-14 0)
(2.9 6.41976e-14 0)
(2.9 -2.24884e-14 0)
(2.9 4.60267e-14 0)
(2.9 5.42752e-14 0)
(2.9 9.21054e-14 0)
(2.9 1.83752e-14 0)
(2.9 3.04893e-14 0)
(2.9 8.18421e-14 0)
(2.9 9.40992e-14 0)
(2.9 8.24839e-14 0)
(2.9 9.37597e-14 0)
(2.9 3.96431e-14 0)
(2.9 1.47415e-14 0)
(2.9 8.15514e-14 0)
(2.9 4.39684e-15 0)
(2.9 -1.66985e-14 0)
(2.9 8.81529e-14 0)
(2.9 1.05678e-13 0)
(2.9 2.15239e-14 0)
(2.9 8.15912e-14 0)
(2.9 9.90278e-15 0)
(2.9 -2.08731e-14 0)
(2.9 3.63277e-14 0)
(2.9 -7.31297e-15 0)
(2.9 -5.46758e-14 0)
(2.9 -6.98207e-14 0)
(2.9 -1.78155e-14 0)
(2.9 9.37954e-16 0)
(2.9 -4.70958e-14 0)
(2.9 -3.95778e-15 0)
(2.9 8.35445e-14 0)
(2.9 4.71815e-14 0)
(2.9 -4.24594e-14 0)
(2.9 -1.11719e-13 0)
(2.9 -5.11938e-14 0)
(2.9 6.36338e-14 0)
(2.9 7.44885e-14 0)
(2.9 8.17207e-15 0)
(2.9 4.03924e-14 0)
(2.9 2.81761e-14 0)
(2.9 6.18835e-14 0)
(2.9 2.75493e-14 0)
(2.9 1.91938e-14 0)
(2.9 1.08802e-13 0)
(2.9 4.10601e-14 0)
(2.9 7.34402e-14 0)
(2.9 8.57607e-14 0)
(2.9 -2.01516e-14 0)
(2.9 -7.66441e-14 0)
(2.9 1.04066e-14 0)
(2.9 -3.3991e-14 0)
(2.9 -6.49936e-15 0)
(2.9 -4.85966e-14 0)
(2.9 -2.39895e-14 0)
(2.9 -5.25271e-14 0)
(2.9 3.33681e-14 0)
(2.9 -1.8633e-14 0)
(2.9 -1.07667e-14 0)
(2.9 -1.77066e-14 0)
(2.9 -1.21117e-13 0)
(2.9 -2.38755e-14 0)
(2.9 -2.35233e-14 0)
(2.9 9.65051e-14 0)
(2.9 1.19312e-13 0)
(2.9 8.54586e-14 0)
(2.9 -1.33974e-14 0)
(2.9 8.91453e-15 0)
(2.9 5.15764e-14 0)
(2.9 1.41786e-13 0)
(2.9 7.70126e-14 0)
(2.9 7.16104e-14 0)
(2.9 3.75805e-14 0)
(2.9 -1.98887e-14 0)
(2.9 4.93731e-14 0)
(2.9 -4.66081e-14 0)
(2.9 1.71564e-14 0)
(2.9 3.64891e-14 0)
(2.9 3.27769e-14 0)
(2.9 -4.10264e-14 0)
(2.9 1.17869e-14 0)
(2.9 -1.71228e-14 0)
(2.9 2.74863e-14 0)
(2.9 1.3245e-14 0)
(2.9 6.48898e-15 0)
(2.9 -1.52937e-14 0)
(2.9 -1.03442e-13 0)
(2.9 5.94754e-14 0)
(2.9 1.23464e-13 0)
(2.9 -3.05571e-14 0)
(2.9 1.81281e-14 0)
(2.9 1.95933e-14 0)
(2.9 -2.3809e-14 0)
(2.9 -5.74597e-14 0)
(2.9 -1.42376e-13 0)
(2.9 -3.71892e-14 0)
(2.9 7.01539e-14 0)
(2.9 1.07417e-13 0)
(2.9 2.42139e-14 0)
(2.9 7.69285e-14 0)
(2.9 5.64194e-14 0)
(2.9 5.10865e-14 0)
(2.9 -5.17221e-15 0)
(2.9 -3.88231e-15 0)
(2.9 8.3092e-14 0)
(2.9 -4.36713e-15 0)
(2.9 -1.39799e-14 0)
(2.9 4.36396e-14 0)
(2.9 2.48405e-14 0)
(2.9 -2.11383e-14 0)
(2.9 -3.25055e-14 0)
(2.9 -1.79894e-14 0)
(2.9 1.79432e-14 0)
(2.9 -5.22273e-14 0)
(2.9 -3.96517e-14 0)
(2.9 -5.10465e-14 0)
(2.9 -2.26671e-14 0)
(2.9 -4.12781e-14 0)
(2.9 -1.97368e-14 0)
(2.9 1.34327e-14 0)
(2.9 -6.76215e-14 0)
(2.9 -9.5249e-14 0)
(2.9 -3.45201e-17 0)
(2.9 6.42905e-14 0)
(2.9 8.85333e-14 0)
(2.9 2.71894e-14 0)
(2.9 1.25443e-14 0)
(2.9 4.24424e-14 0)
(2.9 1.79697e-14 0)
(2.9 9.03138e-14 0)
(2.9 -1.26121e-15 0)
(2.9 2.43305e-14 0)
(2.9 1.24903e-14 0)
(2.9 6.54113e-15 0)
(2.9 -4.23208e-14 0)
(2.9 2.40545e-14 0)
(2.9 -3.79852e-14 0)
(2.9 -4.1959e-14 0)
(2.9 -1.67864e-14 0)
(2.9 -5.49943e-14 0)
(2.9 -3.90134e-14 0)
(2.9 1.77091e-14 0)
(2.9 6.1158e-14 0)
(2.9 -2.44422e-15 0)
(2.9 9.61094e-15 0)
(2.9 -3.93014e-14 0)
(2.9 -6.28973e-14 0)
(2.9 5.0446e-14 0)
(2.9 1.36489e-13 0)
(2.9 2.35102e-14 0)
(2.9 -1.3687e-15 0)
(2.9 -4.03288e-14 0)
(2.9 4.30198e-14 0)
(2.9 5.21446e-15 0)
(2.9 9.48279e-15 0)
(2.9 -1.12225e-14 0)
(2.9 -1.37216e-15 0)
(2.9 9.9154e-15 0)
(2.9 8.49491e-16 0)
(2.9 7.13039e-14 0)
(2.9 5.35758e-14 0)
(2.9 6.55094e-14 0)
(2.9 5.71528e-14 0)
(2.9 1.86611e-14 0)
(2.9 -1.63451e-14 0)
(2.9 -1.63876e-14 0)
(2.9 -2.02504e-14 0)
(2.9 -2.526e-14 0)
(2.9 6.87041e-14 0)
(2.9 3.60182e-14 0)
(2.9 -2.76092e-14 0)
(2.9 2.30131e-15 0)
(2.9 -2.95523e-14 0)
(2.9 -3.63994e-14 0)
(2.9 1.69255e-14 0)
(2.9 -5.05238e-14 0)
(2.9 -9.52196e-14 0)
(2.9 -5.27537e-14 0)
(2.9 3.43897e-14 0)
(2.9 4.52772e-14 0)
(2.9 -2.92508e-15 0)
(2.9 -3.15287e-15 0)
(2.9 3.41538e-14 0)
(2.9 5.86287e-14 0)
(2.9 4.63626e-14 0)
(2.9 3.29908e-14 0)
(2.9 3.73255e-14 0)
(2.9 7.83079e-14 0)
(2.9 3.59131e-14 0)
(2.9 4.54026e-14 0)
(2.9 -3.89583e-14 0)
(2.9 1.52812e-14 0)
(2.9 -1.65754e-14 0)
(2.9 -1.84337e-14 0)
(2.9 1.65763e-14 0)
(2.9 4.15438e-14 0)
(2.9 -5.50458e-14 0)
(2.9 -5.59493e-14 0)
(2.9 -1.01902e-14 0)
(2.9 -8.83879e-15 0)
(2.9 -5.4231e-15 0)
(2.9 6.25109e-14 0)
(2.9 7.58603e-14 0)
(2.9 7.70929e-14 0)
(2.9 3.49904e-14 0)
(2.9 -3.25524e-14 0)
(2.9 2.93439e-14 0)
(2.9 4.96728e-14 0)
(2.9 9.82199e-14 0)
(2.9 -4.35368e-14 0)
(2.9 -7.18442e-14 0)
(2.9 1.54761e-14 0)
(2.9 8.48942e-14 0)
(2.9 1.32536e-14 0)
(2.9 8.23348e-15 0)
(2.9 2.47939e-14 0)
(2.9 -5.13784e-14 0)
(2.9 -4.34269e-14 0)
(2.9 5.58937e-14 0)
(2.9 8.90288e-14 0)
(2.9 7.23393e-14 0)
(2.9 1.33581e-13 0)
(2.9 9.50752e-14 0)
(2.9 -1.25094e-14 0)
(2.9 -1.13579e-13 0)
(2.9 4.38839e-15 0)
(2.9 1.18914e-14 0)
(2.9 3.42304e-14 0)
(2.9 1.02327e-13 0)
(2.9 9.5983e-14 0)
(2.9 4.16845e-14 0)
(2.9 6.30685e-14 0)
(2.9 -5.83902e-15 0)
(2.9 1.58815e-14 0)
(2.9 1.14894e-15 0)
(2.9 -9.32747e-14 0)
(2.9 -1.6877e-13 0)
(2.9 -5.24071e-14 0)
(2.9 7.43521e-14 0)
(2.9 8.38305e-14 0)
(2.9 6.77329e-14 0)
(2.9 8.08852e-14 0)
(2.9 8.61929e-14 0)
(2.9 2.80014e-14 0)
(2.9 9.43716e-14 0)
(2.9 7.34106e-14 0)
(2.9 -1.05566e-14 0)
(2.9 7.54636e-14 0)
(2.9 5.2292e-14 0)
(2.9 1.54911e-14 0)
(2.9 -2.35534e-14 0)
(2.9 -3.82865e-14 0)
(2.9 -6.29441e-14 0)
(2.9 -9.03329e-15 0)
(2.9 6.99955e-14 0)
(2.9 9.47103e-14 0)
(2.9 7.18322e-17 0)
(2.9 2.71168e-15 0)
(2.9 1.31635e-14 0)
(2.9 3.72733e-14 0)
(2.9 3.49001e-14 0)
(2.9 1.98373e-14 0)
(2.9 6.22124e-14 0)
(2.9 6.26522e-14 0)
(2.9 1.25878e-14 0)
(2.9 3.92165e-16 0)
(2.9 1.06618e-13 0)
(2.9 1.15031e-13 0)
(2.9 1.35924e-13 0)
(2.9 -1.31176e-13 0)
(2.9 -1.35239e-13 0)
(2.9 -2.07225e-14 0)
(2.9 3.66975e-14 0)
(2.9 8.84465e-15 0)
(2.9 -1.80375e-14 0)
(2.9 3.04785e-14 0)
(2.9 8.71963e-15 0)
(2.9 2.17139e-14 0)
(2.9 1.19003e-13 0)
(2.9 4.74417e-14 0)
(2.9 5.36008e-14 0)
(2.9 6.76569e-14 0)
(2.9 6.30731e-14 0)
(2.9 -2.47094e-14 0)
(2.9 -8.34353e-14 0)
(2.9 3.27349e-14 0)
(2.9 9.96167e-14 0)
(2.9 6.36677e-14 0)
(2.9 9.59694e-14 0)
(2.9 1.08389e-13 0)
(2.9 7.23939e-14 0)
(2.9 4.57602e-14 0)
(2.9 7.589e-14 0)
(2.9 6.87361e-14 0)
(2.9 -5.65131e-15 0)
(2.9 -7.21097e-14 0)
(2.9 -1.38063e-13 0)
(2.9 -2.46139e-14 0)
(2.9 5.13202e-14 0)
(2.9 5.8118e-14 0)
(2.9 9.18129e-15 0)
(2.9 -9.67756e-15 0)
(2.9 6.24463e-14 0)
(2.9 1.3984e-14 0)
(2.9 4.54016e-14 0)
(2.9 -9.32804e-16 0)
(2.9 -7.39449e-14 0)
(2.9 1.90427e-14 0)
(2.9 5.81851e-15 0)
(2.9 4.33761e-14 0)
(2.9 1.32192e-14 0)
(2.9 -3.90703e-14 0)
(2.9 -9.26657e-14 0)
(2.9 -5.90952e-14 0)
(2.9 -4.40673e-14 0)
(2.9 3.80434e-14 0)
(2.9 -3.22894e-14 0)
(2.9 1.98725e-15 0)
(2.9 -6.14639e-14 0)
(2.9 -2.28139e-14 0)
(2.9 -2.44525e-15 0)
(2.9 -1.48138e-14 0)
(2.9 3.68571e-14 0)
(2.9 2.81294e-16 0)
(2.9 -8.75133e-15 0)
(2.9 5.29523e-14 0)
(2.9 7.1979e-14 0)
(2.9 2.03364e-14 0)
(2.9 1.18245e-13 0)
(2.9 -5.95151e-14 0)
(2.9 -8.61979e-14 0)
(2.9 -6.60498e-17 0)
(2.9 1.76701e-14 0)
(2.9 6.26375e-14 0)
(2.9 3.93965e-14 0)
(2.9 -2.50507e-14 0)
(2.9 1.81304e-14 0)
(2.9 4.54693e-14 0)
(2.9 6.89921e-14 0)
(2.9 2.03779e-16 0)
(2.9 5.74022e-15 0)
(2.9 2.30423e-14 0)
(2.9 5.93648e-14 0)
(2.9 8.63995e-14 0)
(2.9 1.9825e-14 0)
(2.9 1.01185e-14 0)
(2.9 6.20792e-14 0)
(2.9 9.66333e-14 0)
(2.9 1.05993e-13 0)
(2.9 9.45497e-14 0)
(2.9 6.79557e-14 0)
(2.9 1.51447e-14 0)
(2.9 8.37078e-14 0)
(2.9 5.69701e-14 0)
(2.9 5.51895e-14 0)
(2.9 -1.73885e-14 0)
(2.9 4.22216e-14 0)
(2.9 2.36805e-14 0)
(2.9 3.03336e-14 0)
(2.9 6.52538e-15 0)
(2.9 8.05095e-14 0)
(2.9 4.1527e-15 0)
(2.9 2.84552e-14 0)
(2.9 5.40154e-14 0)
(2.9 -3.54124e-14 0)
(2.9 -7.04268e-14 0)
(2.9 -4.5796e-14 0)
(2.9 -1.44159e-14 0)
(2.9 -4.78619e-14 0)
(2.9 -3.75276e-14 0)
(2.9 1.35469e-14 0)
(2.9 -6.49947e-14 0)
(2.9 -2.23333e-14 0)
(2.9 -7.46557e-14 0)
(2.9 -1.35478e-13 0)
(2.9 -5.99071e-14 0)
(2.9 -7.35829e-14 0)
(2.9 1.90388e-14 0)
(2.9 -5.90381e-14 0)
(2.9 -1.45195e-14 0)
(2.9 -5.61892e-14 0)
(2.9 3.32757e-15 0)
(2.9 -6.19467e-15 0)
(2.9 -5.379e-14 0)
(2.9 -7.65672e-15 0)
(2.9 8.11334e-14 0)
(2.9 5.52174e-14 0)
(2.9 -3.27853e-14 0)
(2.9 -6.41595e-14 0)
(2.9 2.53528e-14 0)
(2.9 -6.23165e-14 0)
(2.9 1.7221e-14 0)
(2.9 -1.29293e-14 0)
(2.9 3.0423e-14 0)
(2.9 7.77812e-14 0)
(2.9 1.2468e-14 0)
(2.9 1.21807e-14 0)
(2.9 2.52936e-14 0)
(2.9 6.22543e-15 0)
(2.9 6.24189e-14 0)
(2.9 3.41218e-14 0)
(2.9 7.1242e-15 0)
(2.9 7.72132e-14 0)
(2.9 1.22388e-13 0)
(2.9 8.47271e-14 0)
(2.9 -5.35588e-14 0)
(2.9 1.08046e-14 0)
(2.9 1.43598e-13 0)
(2.9 8.63628e-14 0)
(2.9 2.30378e-14 0)
(2.9 1.2834e-15 0)
(2.9 2.27613e-14 0)
(2.9 -1.03224e-15 0)
(2.9 -3.62152e-14 0)
(2.9 1.004e-14 0)
(2.9 8.32552e-14 0)
(2.9 1.34689e-13 0)
(2.9 4.9348e-14 0)
(2.9 1.19817e-14 0)
(2.9 -2.61781e-14 0)
(2.9 1.04491e-13 0)
(2.9 3.74044e-14 0)
(2.9 -1.29706e-14 0)
(2.9 5.03299e-14 0)
(2.9 -5.51687e-14 0)
(2.9 -6.93352e-14 0)
(2.9 6.47428e-14 0)
(2.9 -6.69821e-14 0)
(2.9 -5.47742e-14 0)
(2.9 -1.1298e-13 0)
(2.9 -1.77317e-14 0)
(2.9 -9.06976e-14 0)
(2.9 3.86089e-14 0)
(2.9 2.78876e-14 0)
(2.9 -4.57224e-14 0)
(2.9 -8.63534e-14 0)
(2.9 -6.38066e-14 0)
(2.9 -1.22941e-14 0)
(2.9 1.22219e-14 0)
(2.9 -2.64791e-14 0)
(2.9 -7.04687e-14 0)
(2.9 4.20514e-14 0)
(2.9 -7.20744e-14 0)
(2.9 -7.21209e-14 0)
(2.9 1.49763e-14 0)
(2.9 7.46122e-14 0)
(2.9 9.11387e-14 0)
(2.9 -2.17809e-14 0)
(2.9 -1.92915e-13 0)
(2.9 -2.95811e-14 0)
(2.9 -3.43335e-14 0)
(2.9 2.59452e-15 0)
(2.9 -6.6939e-14 0)
(2.9 8.7593e-15 0)
(2.9 3.92441e-14 0)
(2.9 6.74809e-14 0)
(2.9 4.42972e-14 0)
(2.9 1.33289e-13 0)
(2.9 4.44073e-14 0)
(2.9 2.41655e-14 0)
(2.9 1.87963e-14 0)
(2.9 2.09231e-14 0)
(2.9 5.93782e-14 0)
(2.9 5.04707e-14 0)
(2.9 3.45493e-14 0)
(2.9 -4.21773e-14 0)
(2.9 2.65633e-14 0)
(2.9 7.15743e-14 0)
(2.9 1.9862e-14 0)
(2.9 1.56168e-14 0)
(2.9 3.83426e-15 0)
(2.9 4.14368e-14 0)
(2.9 5.84597e-14 0)
(2.9 3.64571e-14 0)
(2.9 -1.49428e-14 0)
(2.9 5.0558e-14 0)
(2.9 9.497e-14 0)
(2.9 1.89122e-14 0)
(2.9 4.79359e-14 0)
(2.9 3.62154e-14 0)
(2.9 8.29673e-14 0)
(2.9 1.69703e-14 0)
(2.9 -1.28761e-14 0)
(2.9 4.83254e-14 0)
(2.9 -1.75958e-14 0)
(2.9 -4.5848e-14 0)
(2.9 4.31101e-14 0)
(2.9 -3.5633e-14 0)
(2.9 -1.67896e-14 0)
(2.9 -7.65637e-14 0)
(2.9 7.42188e-15 0)
(2.9 -1.52201e-14 0)
(2.9 6.58883e-15 0)
(2.9 2.82485e-14 0)
(2.9 1.95013e-14 0)
(2.9 -2.61046e-14 0)
(2.9 -2.39712e-15 0)
(2.9 3.18908e-14 0)
(2.9 3.12223e-14 0)
(2.9 7.43731e-16 0)
(2.9 1.53673e-14 0)
(2.9 3.51673e-14 0)
(2.9 -1.85627e-14 0)
(2.9 1.40942e-14 0)
(2.9 5.37684e-14 0)
(2.9 5.09049e-14 0)
(2.9 6.03004e-14 0)
(2.9 -2.07742e-14 0)
(2.9 -1.7642e-13 0)
(2.9 -3.50501e-14 0)
(2.9 -2.65251e-14 0)
(2.9 -5.73478e-14 0)
(2.9 -1.3668e-13 0)
(2.9 -3.16969e-14 0)
(2.9 -1.75574e-14 0)
(2.9 -1.1213e-14 0)
(2.9 -1.8345e-14 0)
(2.9 6.8316e-14 0)
(2.9 6.11935e-14 0)
(2.9 -1.76831e-14 0)
(2.9 -2.35123e-14 0)
(2.9 -2.65105e-14 0)
(2.9 -4.09117e-14 0)
(2.9 -7.61755e-15 0)
(2.9 -2.27118e-14 0)
(2.9 3.23487e-14 0)
(2.9 3.47326e-15 0)
(2.9 -5.68131e-14 0)
(2.9 3.22163e-14 0)
(2.9 3.91237e-14 0)
(2.9 -4.52792e-15 0)
(2.9 2.713e-14 0)
(2.9 1.20956e-13 0)
(2.9 9.61246e-14 0)
(2.9 4.51783e-14 0)
(2.9 -6.47185e-15 0)
(2.9 -5.26792e-14 0)
(2.9 4.50541e-14 0)
(2.9 6.15143e-14 0)
(2.9 8.19001e-14 0)
(2.9 9.43515e-14 0)
(2.9 6.14079e-15 0)
(2.9 2.04544e-14 0)
(2.9 7.29824e-14 0)
(2.9 5.26843e-14 0)
(2.9 1.95601e-14 0)
(2.9 9.34238e-15 0)
(2.9 4.40022e-14 0)
(2.9 8.12115e-14 0)
(2.9 4.47273e-15 0)
(2.9 1.53504e-14 0)
(2.9 7.63145e-14 0)
(2.9 -2.28634e-14 0)
(2.9 -3.87832e-14 0)
(2.9 3.42722e-14 0)
(2.9 2.35617e-14 0)
(2.9 4.33968e-14 0)
(2.9 2.94295e-14 0)
(2.9 5.98369e-14 0)
(2.9 3.33139e-14 0)
(2.9 1.10148e-13 0)
(2.9 7.43328e-14 0)
(2.9 6.9677e-14 0)
(2.9 9.71653e-14 0)
(2.9 1.31167e-13 0)
(2.9 1.01724e-13 0)
(2.9 5.28481e-14 0)
(2.9 -6.35693e-14 0)
(2.9 -1.10019e-13 0)
(2.9 -7.01189e-14 0)
(2.9 -1.20046e-14 0)
(2.9 -7.07786e-14 0)
(2.9 -9.06827e-14 0)
(2.9 -9.10559e-14 0)
(2.9 -1.01479e-13 0)
(2.9 -5.52998e-14 0)
(2.9 -6.99838e-14 0)
(2.9 -2.40949e-14 0)
(2.9 -1.99756e-14 0)
(2.9 1.3706e-14 0)
(2.9 2.45137e-14 0)
(2.9 -5.75505e-15 0)
(2.9 -7.44197e-14 0)
(2.9 -5.54642e-14 0)
(2.9 -1.89032e-14 0)
(2.9 3.41525e-14 0)
(2.9 -2.00052e-14 0)
(2.9 -1.15208e-13 0)
(2.9 1.02491e-14 0)
(2.9 7.82468e-14 0)
(2.9 -2.99836e-14 0)
(2.9 -2.13973e-14 0)
(2.9 7.96997e-14 0)
(2.9 3.48727e-14 0)
(2.9 6.67379e-14 0)
(2.9 -5.0382e-14 0)
(2.9 -1.14748e-13 0)
(2.9 5.18855e-15 0)
(2.9 5.84193e-14 0)
(2.9 5.4475e-14 0)
(2.9 9.06239e-14 0)
(2.9 5.75972e-14 0)
(2.9 4.14184e-14 0)
(2.9 2.14413e-14 0)
(2.9 3.34864e-14 0)
(2.9 2.26128e-14 0)
(2.9 -3.72461e-14 0)
(2.9 8.26802e-14 0)
(2.9 1.72843e-13 0)
(2.9 7.69788e-14 0)
(2.9 -5.63076e-15 0)
(2.9 5.87475e-14 0)
(2.9 2.29204e-14 0)
(2.9 7.38048e-15 0)
(2.9 4.87736e-14 0)
(2.9 -1.60595e-14 0)
(2.9 9.10827e-14 0)
(2.9 -8.58426e-15 0)
(2.9 1.2565e-13 0)
(2.9 1.29616e-13 0)
(2.9 1.24361e-13 0)
(2.9 1.31032e-13 0)
(2.9 1.00942e-13 0)
(2.9 1.0498e-13 0)
(2.9 1.56544e-13 0)
(2.9 1.63729e-13 0)
(2.9 8.83701e-14 0)
(2.9 -3.58161e-14 0)
(2.9 1.37284e-14 0)
(2.9 -4.8119e-15 0)
(2.9 5.11918e-14 0)
(2.9 1.97214e-14 0)
(2.9 4.73012e-15 0)
(2.9 -9.02512e-14 0)
(2.9 -1.31363e-13 0)
(2.9 -6.33959e-14 0)
(2.9 -2.7652e-14 0)
(2.9 -8.42905e-14 0)
(2.9 -6.34112e-15 0)
(2.9 3.56042e-14 0)
(2.9 1.03873e-14 0)
(2.9 -2.59261e-14 0)
(2.9 -1.06425e-13 0)
(2.9 -1.95955e-14 0)
(2.9 -3.37991e-15 0)
(2.9 3.85654e-14 0)
(2.9 -6.35802e-15 0)
(2.9 -7.45137e-14 0)
(2.9 -4.36707e-14 0)
(2.9 7.20658e-14 0)
(2.9 2.94383e-14 0)
(2.9 -3.24908e-14 0)
(2.9 -3.10454e-14 0)
(2.9 -3.08318e-14 0)
(2.9 -1.97867e-14 0)
(2.9 -7.13498e-14 0)
(2.9 -1.10418e-13 0)
(2.9 -3.16224e-14 0)
(2.9 3.77962e-15 0)
(2.9 2.18011e-14 0)
(2.9 -4.46238e-14 0)
(2.9 1.04534e-14 0)
(2.9 4.19031e-15 0)
(2.9 -7.26712e-14 0)
(2.9 3.56032e-14 0)
(2.9 7.9045e-14 0)
(2.9 1.22964e-14 0)
(2.9 7.13456e-14 0)
(2.9 1.12537e-13 0)
(2.9 2.89414e-14 0)
(2.9 -5.35789e-14 0)
(2.9 1.92978e-14 0)
(2.9 -2.98175e-14 0)
(2.9 3.04327e-14 0)
(2.9 9.08593e-15 0)
(2.9 1.46112e-14 0)
(2.9 4.62321e-14 0)
(2.9 -3.96236e-15 0)
(2.9 -1.85354e-16 0)
(2.9 8.7469e-14 0)
(2.9 8.283e-14 0)
(2.9 5.82294e-14 0)
(2.9 5.0793e-14 0)
(2.9 2.34796e-14 0)
(2.9 1.34079e-14 0)
(2.9 7.96674e-14 0)
(2.9 5.43207e-14 0)
(2.9 6.95181e-14 0)
(2.9 1.1568e-13 0)
(2.9 6.11882e-14 0)
(2.9 5.91376e-14 0)
(2.9 7.2792e-14 0)
(2.9 5.71337e-14 0)
(2.9 -6.01104e-14 0)
(2.9 -6.49319e-14 0)
(2.9 -6.2615e-14 0)
(2.9 -2.81847e-14 0)
(2.9 -8.15619e-14 0)
(2.9 2.2759e-14 0)
(2.9 -9.45229e-16 0)
(2.9 -9.43225e-15 0)
(2.9 -7.65196e-14 0)
(2.9 -1.15431e-13 0)
(2.9 1.80938e-14 0)
(2.9 7.84316e-14 0)
(2.9 5.08582e-14 0)
(2.9 -1.32696e-14 0)
(2.9 -3.65542e-14 0)
(2.9 -5.62647e-14 0)
(2.9 6.92471e-14 0)
(2.9 4.72352e-14 0)
(2.9 -2.81926e-14 0)
(2.9 -1.34625e-13 0)
(2.9 -5.86238e-14 0)
(2.9 -4.2632e-14 0)
(2.9 -8.64244e-14 0)
(2.9 -8.58195e-14 0)
(2.9 4.81167e-15 0)
(2.9 -2.86715e-14 0)
(2.9 6.29207e-15 0)
(2.9 -8.54975e-14 0)
(2.9 -2.11366e-14 0)
(2.9 2.43553e-14 0)
(2.9 -7.26492e-14 0)
(2.9 3.00035e-14 0)
(2.9 1.38648e-13 0)
(2.9 4.89251e-14 0)
(2.9 3.71242e-14 0)
(2.9 -3.43771e-15 0)
(2.9 1.656e-14 0)
(2.9 -3.7342e-14 0)
(2.9 9.26125e-16 0)
(2.9 -5.45933e-14 0)
(2.9 1.05262e-14 0)
(2.9 -1.335e-15 0)
(2.9 6.73722e-14 0)
(2.9 7.69354e-15 0)
(2.9 -1.90723e-14 0)
(2.9 -4.86401e-14 0)
(2.9 2.45372e-14 0)
(2.9 5.56941e-15 0)
(2.9 -4.53305e-14 0)
(2.9 -3.55467e-14 0)
(2.9 -7.48804e-14 0)
(2.9 -7.46356e-14 0)
(2.9 -2.71031e-14 0)
(2.9 -6.88977e-14 0)
(2.9 3.08319e-14 0)
(2.9 1.35872e-13 0)
(2.9 1.44019e-14 0)
(2.9 4.75266e-14 0)
(2.9 6.04314e-14 0)
(2.9 8.67384e-14 0)
(2.9 3.04451e-14 0)
(2.9 3.16052e-14 0)
(2.9 -1.94389e-14 0)
(2.9 -6.02999e-15 0)
(2.9 -7.71441e-14 0)
(2.9 -1.94109e-14 0)
(2.9 -5.00695e-14 0)
(2.9 -1.88963e-14 0)
(2.9 -1.04273e-13 0)
(2.9 -7.20874e-14 0)
(2.9 1.02331e-14 0)
(2.9 8.10033e-14 0)
(2.9 -4.13683e-15 0)
(2.9 -5.773e-14 0)
(2.9 -5.11862e-14 0)
(2.9 -2.89392e-14 0)
(2.9 6.79123e-14 0)
(2.9 3.05186e-14 0)
(2.9 -3.48249e-14 0)
(2.9 -1.62397e-13 0)
(2.9 -6.22031e-14 0)
(2.9 -5.73488e-14 0)
(2.9 -6.25518e-14 0)
(2.9 3.81595e-15 0)
(2.9 5.41576e-14 0)
(2.9 -5.06021e-14 0)
(2.9 -4.21903e-14 0)
(2.9 -2.8922e-14 0)
(2.9 2.41279e-14 0)
(2.9 3.31231e-14 0)
(2.9 -4.32183e-15 0)
(2.9 3.25414e-14 0)
(2.9 6.90583e-14 0)
(2.9 3.49342e-14 0)
(2.9 -1.30227e-15 0)
(2.9 -3.42329e-14 0)
(2.9 -3.06251e-15 0)
(2.9 4.20677e-14 0)
(2.9 5.41367e-14 0)
(2.9 -1.71094e-14 0)
(2.9 -3.92254e-14 0)
(2.9 -2.74739e-14 0)
(2.9 6.45518e-14 0)
(2.9 3.2869e-14 0)
(2.9 6.04453e-14 0)
(2.9 4.15488e-15 0)
(2.9 3.30245e-14 0)
(2.9 -6.32345e-15 0)
(2.9 -1.08687e-13 0)
(2.9 -1.95661e-14 0)
(2.9 -9.30702e-14 0)
(2.9 -7.73856e-14 0)
(2.9 -4.26793e-14 0)
(2.9 -1.36822e-13 0)
(2.9 -5.86913e-14 0)
(2.9 5.63207e-14 0)
(2.9 2.89597e-14 0)
(2.9 4.13985e-14 0)
(2.9 1.87415e-14 0)
(2.9 8.16266e-14 0)
(2.9 9.5169e-14 0)
(2.9 7.01324e-14 0)
(2.9 3.50891e-14 0)
(2.9 -2.72911e-14 0)
(2.9 -4.73072e-14 0)
(2.9 -5.80842e-14 0)
(2.9 -7.07252e-14 0)
(2.9 -2.30546e-14 0)
(2.9 -7.19854e-14 0)
(2.9 -7.98475e-14 0)
(2.9 -5.10797e-14 0)
(2.9 -5.17907e-14 0)
(2.9 -5.89045e-14 0)
(2.9 -2.62147e-14 0)
(2.9 -5.22214e-14 0)
(2.9 -5.66875e-14 0)
(2.9 -3.51735e-14 0)
(2.9 6.29122e-14 0)
(2.9 2.05808e-14 0)
(2.9 -1.0621e-13 0)
(2.9 -1.37702e-13 0)
(2.9 -8.91049e-14 0)
(2.9 -3.69438e-14 0)
(2.9 4.23443e-14 0)
(2.9 5.58207e-14 0)
(2.9 -4.60672e-14 0)
(2.9 -2.17522e-14 0)
(2.9 -1.13631e-14 0)
(2.9 -3.98246e-14 0)
(2.9 -7.36832e-14 0)
(2.9 -6.94527e-14 0)
(2.9 -3.88044e-14 0)
(2.9 -4.08676e-14 0)
(2.9 -7.99469e-15 0)
(2.9 -7.8958e-14 0)
(2.9 -4.96213e-14 0)
(2.9 -6.20616e-15 0)
(2.9 5.34247e-14 0)
(2.9 2.01736e-14 0)
(2.9 4.91294e-15 0)