/*--------------------------------*- C++ -*----------------------------------*\
| =========                 |                                                 |
| \\      /  F ield         | OpenFOAM: The Open Source CFD Toolbox           |
|  \\    /   O peration     | Version:  2412                                  |
|   \\  /    A nd           | Website:  www.openfoam.com                      |
|    \\/     M anipulation  |                                                 |
\*---------------------------------------------------------------------------*/
FoamFile
{
    version     2.0;
    format      ascii;
    arch        "LSB;label=32;scalar=64";
    class       volVectorField;
    location    "0.0371314";
    object      U;
}
// * * * * * * * * * * * * * * * * * * * * * * * * * * * * * * * * * * * * * //

dimensions      [0 1 -1 0 0 0 0];

internalField   nonuniform List<vector> 
100
(
(1.74556 0 0)
(5.45725 0 0)
(8.92828 0 0)
(12.6921 0 0)
(16.0625 0 0)
(19.9203 0 0)
(23.1467 0 0)
(26.8628 0 0)
(30.24 0 0)
(33.9809 0 0)
(37.555 0 0)
(41.277 0 0)
(45.0517 0 0)
(48.5932 0 0)
(52.3475 0 0)
(55.791 0 0)
(59.4785 0 0)
(62.7906 0 0)
(66.5449 0 0)
(69.922 0 0)
(73.6823 0 0)
(77.124 0 0)
(80.7916 0 0)
(84.2819 0 0)
(87.8903 0 0)
(91.4187 0 0)
(95.0134 0 0)
(98.5746 0 0)
(102.164 0 0)
(105.702 0 0)
(109.216 0 0)
(112.671 0 0)
(116.456 0 0)
(120.11 0 0)
(92.0824 0 0)
(-91.656 0 0)
(-153.826 0 0)
(-150.687 0 0)
(-141.71 0 0)
(-141.639 0 0)
(-146.379 0 0)
(-145.682 0 0)
(-141.187 0 0)
(-132.859 0 0)
(-126.982 0 0)
(-124.979 0 0)
(-124.652 0 0)
(-125.927 0 0)
(-127.522 0 0)
(-127.591 0 0)
(-126.185 0 0)
(-122.084 0 0)
(-112.476 0 0)
(-102.72 0 0)
(-98.2745 0 0)
(-97.7134 0 0)
(-98.6371 0 0)
(-99.7773 0 0)
(-99.0327 0 0)
(-97.9712 0 0)
(-95.8681 0 0)
(-91.9063 0 0)
(-87.8779 0 0)
(-84.3185 0 0)
(-84.2372 0 0)
(-81.5328 0 0)
(-80.283 0 0)
(-75.8957 0 0)
(-70.1569 0 0)
(-67.3743 0 0)
(-64.6299 0 0)
(-67.6537 0 0)
(-64.2511 0 0)
(-60.567 0 0)
(-54.6632 0 0)
(-49.3406 0 0)
(-49.3712 0 0)
(-49.8137 0 0)
(-53.8197 0 0)
(-54.169 0 0)
(-50.1715 0 0)
(-41.5077 0 0)
(-32.9254 0 0)
(-27.9175 0 0)
(-26.7745 0 0)
(-28.6735 0 0)
(-30.9188 0 0)
(-30.4563 0 0)
(-29.3572 0 0)
(-24.3082 0 0)
(-15.8034 0 0)
(-3.9559 0 0)
(7.03158 0 0)
(13.6596 0 0)
(15.972 0 0)
(13.3772 0 0)
(5.62602 0 0)
(-0.593266 0 0)
(-2.38119 0 0)
(-1.04519 0 0)
)
;

boundaryField
{
    sides
    {
        type            fixedValue;
        value           uniform (0 0 0);
    }
    empty
    {
        type            empty;
    }
}


// ************************************************************************* //
