x,p,U_0,U_1,U_2
-5,133668,0,0,0
-4.94975,133549,-14.4754,0,0
-4.8995,109839,-9.41924,0,0
-4.84925,86266.6,-5.40832,0,0
-4.79899,71749.5,-70.0315,0,0
-4.74874,57320.1,-134.206,0,0
-4.69849,46311.4,-180.864,0,0
-4.64824,35655.2,-225.947,0,0
-4.59799,34720.8,-227.586,0,0
-4.54774,33841.8,-229.041,0,0
-4.49749,34137.6,-226.603,0,0
-4.44724,34427.7,-224.275,0,0
-4.39698,34617.5,-223.854,0,0
-4.34673,34829.2,-223.525,0,0
-4.29648,35353.9,-224.528,0,0
-4.24623,35935.3,-225.979,0,0
-4.19598,37217.5,-232.946,0,0
-4.14573,38464.3,-239.531,0,0
-4.09548,39331,-241.998,0,0
-4.04523,40119.4,-244.169,0,0
-3.99497,40161.7,-243.512,0,0
-3.94472,40233.8,-242.803,0,0
-3.89447,40560.4,-241.644,0,0
-3.84422,40806.2,-240.299,0,0
-3.79397,40430.5,-237.523,0,0
-3.74372,40066.9,-234.5,0,0
-3.69347,39787.1,-229.756,0,0
-3.64322,39510.8,-225.39,0,0
-3.59296,39257,-223.448,0,0
-3.54271,39098,-221.68,0,0
-3.49246,39497.3,-220.94,0,0
-3.44221,39854.2,-220.369,0,0
-3.39196,39979.2,-220.718,0,0
-3.34171,40223.2,-221.313,0,0
-3.29146,41069.7,-223.156,0,0
-3.24121,41792.3,-224.688,0,0
-3.19095,41931,-224.751,0,0
-3.1407,42115.2,-224.671,0,0
-3.09045,42499.6,-223.96,0,0
-3.0402,42759.7,-222.899,0,0
-2.98995,42506.6,-220.393,0,0
-2.9397,42229.6,-217.441,0,0
-2.88945,41859.7,-212.765,0,0
-2.8392,41523.8,-208.574,0,0
-2.78894,41311.9,-206.151,0,0
-2.73869,41215.4,-204.107,0,0
-2.68844,41516.3,-203.368,0,0
-2.63819,41833.1,-202.993,0,0
-2.58794,42202.1,-203.808,0,0
-2.53769,42696.9,-205.048,0,0
-2.48744,43579.4,-207.597,0,0
-2.43719,44321.6,-209.53,0,0
-2.38693,44654.1,-209.658,0,0
-2.33668,44966.2,-209.489,0,0
-2.28643,45221.8,-208.495,0,0
-2.23618,45344.4,-206.917,0,0
-2.18593,45116,-203.802,0,0
-2.13568,44791.8,-200.092,0,0
-2.08543,44227.1,-194.89,0,0
-2.03518,43795.6,-190.491,0,0
-1.98492,43682.1,-188.01,0,0
-1.93467,43673.9,-186.045,0,0
-1.88442,43905.4,-185.255,0,0
-1.83417,44264.6,-185.292,0,0
-1.78392,44901.4,-187.128,0,0
-1.73367,45803,-190.167,0,0
-1.68342,47254.6,-195.705,0,0
-1.63317,48445,-199.901,0,0
-1.58291,49117,-201.432,0,0
-1.53266,49644,-202.188,0,0
-1.48241,49896,-201.471,0,0
-1.43216,50047.8,-200.227,0,0
-1.38191,50017.4,-198.024,0,0
-1.33166,49615.5,-194.06,0,0
-1.28141,48566.9,-187.031,0,0
-1.23116,47556,-180.08,0,0
-1.1809,46607.9,-173.26,0,0
-1.13065,45986.1,-168.107,0,0
-1.0804,45885.7,-165.619,0,0
-1.03015,45909.2,-163.769,0,0
-0.979899,46122.4,-162.896,0,0
-0.929648,46380.8,-162.375,0,0
-0.879397,46705.6,-162.371,0,0
-0.829146,47289,-163.596,0,0
-0.778894,48236.7,-166.554,0,0
-0.728643,49222.6,-169.608,0,0
-0.678392,50260.2,-172.792,0,0
-0.628141,51038.7,-174.708,0,0
-0.577889,51480.4,-174.978,0,0
-0.527638,51838.2,-174.814,0,0
-0.477387,52091.2,-174.111,0,0
-0.427136,52285.6,-173.059,0,0
-0.376884,52409.7,-171.59,0,0
-0.326633,52438.7,-169.832,0,0
-0.276382,52358.5,-167.739,0,0
-0.226131,52361.3,-165.891,0,0
-0.175879,52456,-164.313,0,0
-0.125628,52594,-163.038,0,0
-0.0753769,52777.8,-162.085,0,0
-0.0251256,52933.7,-160.893,0,0
0.0251256,53061.1,-159.456,0,0
0.0753769,53078.7,-157.607,0,0
0.125628,52988.7,-155.354,0,0
0.175879,52956.2,-153.302,0,0
0.226131,52977.9,-151.438,0,0
0.276382,53113.8,-150.148,0,0
0.326633,53353.1,-149.377,0,0
0.376884,53654.2,-148.942,0,0
0.427136,54008.8,-148.798,0,0
0.477387,54476.7,-149.057,0,0
0.527638,55039,-149.651,0,0
0.577889,55524.6,-149.918,0,0
0.628141,55948.6,-149.922,0,0
0.678392,56291.8,-149.472,0,0
0.728643,56572.9,-148.672,0,0
0.778894,56645.6,-147.016,0,0
0.829146,56564.2,-144.726,0,0
0.879397,56357.9,-141.941,0,0
0.929648,56063,-138.804,0,0
0.979899,56004.2,-136.528,0,0
1.03015,56106.3,-134.837,0,0
1.0804,56348.4,-134.103,0,0
1.13065,56682,-133.996,0,0
1.1809,57739.5,-136.707,0,0
1.23116,59250.4,-141.183,0,0
1.28141,61081.1,-146.805,0,0
1.33166,63103.8,-153.113,0,0
1.38191,64387.7,-156.185,0,0
1.43216,65246.8,-157.396,0,0
1.48241,65755,-157.394,0,0
1.53266,66070.1,-156.724,0,0
1.58291,66228.3,-155.125,0,0
1.63317,66303.9,-153.036,0,0
1.68342,65478.6,-147.906,0,0
1.73367,64199.3,-141.243,0,0
1.78392,62429.5,-132.095,0,0
1.83417,60423.4,-121.75,0,0
1.88442,58950.3,-113.62,0,0
1.93467,57722.2,-106.509,0,0
1.98492,57048.3,-102.084,0,0
2.03518,56617.7,-98.8364,0,0
2.08543,56618.5,-96.0784,0,0
2.13568,56799.8,-93.5251,0,0
2.18593,56664,-91.8928,0,0
2.23618,56401.8,-90.6277,0,0
2.28643,56609.7,-88.979,0,0
2.33668,56995.9,-87.1847,0,0
2.38693,56909.1,-85.5914,0,0
2.43719,56651.9,-84.0704,0,0
2.48744,57064.8,-82.9267,0,0
2.53769,57706.9,-81.9122,0,0
2.58794,57828.1,-81.1352,0,0
2.63819,57780.3,-80.4353,0,0
2.68844,58155.8,-80.3013,0,0
2.73869,58661.4,-80.3412,0,0
2.78894,59082.2,-79.5609,0,0
2.8392,59478.4,-78.5425,0,0
2.88945,59559.6,-77.9671,0,0
2.9397,59554.6,-77.5131,0,0
2.98995,59909.6,-76.1501,0,0
3.0402,60357.6,-74.5529,0,0
3.09045,59846.2,-72.4714,0,0
3.1407,59102.5,-70.2726,0,0
3.19095,59245.4,-66.9366,0,0
3.24121,59589.5,-63.3426,0,0
3.29146,58994.9,-60.0963,0,0
3.34171,58201.2,-56.9238,0,0
3.39196,58322,-54.8519,0,0
3.44221,58623.4,-52.9976,0,0
3.49246,58442.5,-51.076,0,0
3.54271,58173.1,-49.142,0,0
3.59296,58382.4,-48.1128,0,0
3.64322,58672.8,-47.237,0,0
3.69347,58960.8,-46.2059,0,0
3.74372,59248.5,-45.1506,0,0
3.79397,59462.6,-44.358,0,0
3.84422,59666.2,-43.6029,0,0
3.89447,59838.1,-42.305,0,0
3.94472,60005.9,-40.9366,0,0
3.99497,59867.3,-39.2397,0,0
4.04523,59692.8,-37.5044,0,0
4.09548,59815.1,-35.2432,0,0
4.14573,59968.5,-32.9268,0,0
4.19598,59716,-30.7065,0,0
4.24623,59425.7,-28.4952,0,0
4.29648,59599,-26.3236,0,0
4.34673,59809.9,-24.1552,0,0
4.39698,59512.3,-22.1714,0,0
4.44724,59179.4,-20.2004,0,0
4.49749,59416.8,-18.3923,0,0
4.54774,59687.5,-16.5936,0,0
4.59799,59449.9,-14.6917,0,0
4.64824,59188.4,-12.785,0,0
4.69849,59342.2,-11.1373,0,0
4.74874,59511.1,-9.49895,0,0
4.79899,59386.3,-7.51132,0,0
4.84925,59254,-5.51472,0,0
4.8995,59290.3,-3.78826,0,0
4.94975,59329.1,-2.06591,0,0
5,59329.3,0,0,0
