x,p,U_0,U_1,U_2
-5,100000,0,0,0
-4.94975,100000,3.2344e-14,0,0
-4.8995,100000,4.32306e-14,0,0
-4.84925,100000,5.34352e-14,0,0
-4.79899,100000,1.88449e-14,0,0
-4.74874,100000,-1.47415e-14,0,0
-4.69849,100000,-9.18153e-15,0,0
-4.64824,100000,-4.70725e-15,0,0
-4.59799,100000,-3.01672e-14,0,0
-4.54774,100000,-5.47219e-14,0,0
-4.49749,100000,-6.00655e-14,0,0
-4.44724,100000,-6.41055e-14,0,0
-4.39698,100000,-4.57463e-14,0,0
-4.34673,100000,-3.10724e-14,0,0
-4.29648,100000,-6.94077e-14,0,0
-4.24623,100000,-8.51512e-14,0,0
-4.19598,100000,1.77738e-13,0,0
-4.14573,100000,1.30762e-11,0,0
-4.09548,100000,1.61992e-10,0,0
-4.04523,100000,6.20324e-09,0,0
-3.99497,100000,6.83767e-08,0,0
-3.94472,100000,1.92565e-06,0,0
-3.89447,100000,1.9084e-05,0,0
-3.84422,99999.9,0.000305407,0,0
-3.79397,99999.4,0.00266313,0,0
-3.74372,99994.7,0.0187815,0,0
-3.69347,99960.4,0.131225,0,0
-3.64322,99865.8,0.411609,0,0
-3.59296,99385.2,1.76806,0,0
-3.54271,98728.1,3.59323,0,0
-3.49246,97029.7,8.18221,0,0
-3.44221,95230.9,13.0617,0,0
-3.39196,92884.3,19.5247,0,0
-3.34171,90589.7,25.894,0,0
-3.29146,88558,31.7886,0,0
-3.24121,86602.8,37.4993,0,0
-3.19095,85008.6,42.3428,0,0
-3.1407,83461.4,47.0685,0,0
-3.09045,82121.6,51.2751,0,0
-3.0402,80805,55.4294,0,0
-2.98995,79583.7,59.3677,0,0
-2.9397,78374,63.2886,0,0
-2.88945,77209,67.1423,0,0
-2.8392,76051.3,70.9926,0,0
-2.78894,74920.6,74.8301,0,0
-2.73869,73796.3,78.6685,0,0
-2.68844,72694.5,82.51,0,0
-2.63819,71598.7,86.3527,0,0
-2.58794,70522.5,90.1991,0,0
-2.53769,69453.7,94.0492,0,0
-2.48744,68407.6,97.9104,0,0
-2.43719,67365.4,101.77,0,0
-2.38693,66334.5,105.626,0,0
-2.33668,65316.8,109.494,0,0
-2.28643,64335.9,113.395,0,0
-2.23618,63346.5,117.277,0,0
-2.18593,62334.5,121.104,0,0
-2.13568,61364.3,124.977,0,0
-2.08543,60498.8,128.965,0,0
-2.03518,59573.3,132.863,0,0
-1.98492,58504.4,136.544,0,0
-1.93467,57569.7,140.368,0,0
-1.88442,56940.9,144.516,0,0
-1.83417,56113.4,148.451,0,0
-1.78392,54853.6,151.92,0,0
-1.73367,53903.8,155.631,0,0
-1.68342,53598.1,159.842,0,0
-1.63317,52915.1,163.841,0,0
-1.58291,51482.8,167.419,0,0
-1.53266,50485.7,171.065,0,0
-1.48241,50314.7,174.84,0,0
-1.43216,49749.6,178.714,0,0
-1.38191,48468.4,182.77,0,0
-1.33166,47536.2,186.59,0,0
-1.28141,47211.3,190,0,0
-1.23116,46614,193.655,0,0
-1.1809,45562.8,197.72,0,0
-1.13065,44745.3,201.594,0,0
-1.0804,44300.8,205.166,0,0
-1.03015,43691.9,208.952,0,0
-0.979899,42831.3,213.066,0,0
-0.929648,42086.7,216.964,0,0
-0.879397,41512.5,220.543,0,0
-0.829146,40878.1,224.306,0,0
-0.778894,40159,228.328,0,0
-0.728643,39485.8,232.217,0,0
-0.678392,38874.7,235.925,0,0
-0.628141,38259,239.708,0,0
-0.577889,37637.2,243.586,0,0
-0.527638,37049.2,247.485,0,0
-0.477387,36503.2,251.411,0,0
-0.427136,35968.9,255.375,0,0
-0.376884,35448.6,259.387,0,0
-0.326633,34867.6,262.853,0,0
-0.276382,34216.8,265.691,0,0
-0.226131,33629.1,268.501,0,0
-0.175879,33111,271.281,0,0
-0.125628,32693.2,274.277,0,0
-0.0753769,32382,277.503,0,0
-0.0251256,32166.7,280.825,0,0
0.0251256,32049.5,284.248,0,0
0.0753769,31985.1,286.629,0,0
0.125628,31972.7,287.989,0,0
0.175879,31836.4,287.147,0,0
0.226131,31583.4,284.228,0,0
0.276382,31397.1,281.703,0,0
0.326633,31271,279.533,0,0
0.376884,31335.6,278.944,0,0
0.427136,31566,279.728,0,0
0.477387,31912.6,282.327,0,0
0.527638,32356.1,286.44,0,0
0.577889,32552.5,288.59,0,0
0.628141,32550.7,289.164,0,0
0.678392,32173.8,286.556,0,0
0.728643,31508.2,281.498,0,0
0.778894,31123.5,278.291,0,0
0.829146,30946.6,276.451,0,0
0.879397,31105.1,276.863,0,0
0.929648,31501.5,278.872,0,0
0.979899,31960.7,282.474,0,0
1.03015,32462.5,287.16,0,0
1.0804,32634.6,289.118,0,0
1.13065,32591.3,289.294,0,0
1.1809,32210.5,286.629,0,0
1.23116,31618.3,282.186,0,0
1.28141,31271.7,279.4,0,0
1.33166,31072.4,277.607,0,0
1.38191,31182.4,277.797,0,0
1.43216,31470.2,279.128,0,0
1.48241,31914.3,282.566,0,0
1.53266,32444.2,287.162,0,0
1.58291,32584.9,288.546,0,0
1.63317,32520.6,288.239,0,0
1.68342,32305.9,286.79,0,0
1.73367,32015.5,284.768,0,0
1.78392,31650.6,281.875,0,0
1.83417,31249.9,278.563,0,0
1.88442,31172.5,277.559,0,0
1.93467,31243.9,277.617,0,0
1.98492,31456.4,278.859,0,0
2.03518,31730.8,280.62,0,0
2.08543,32065.1,283.454,0,0
2.13568,32424.6,286.737,0,0
2.18593,32438.2,287.045,0,0
2.23618,32313.9,286.168,0,0
2.28643,32246.8,285.549,0,0
2.33668,32201.3,285.028,0,0
2.38693,31967,283.168,0,0
2.43719,31664.7,280.824,0,0
2.48744,31544.1,279.423,0,0
2.53769,31485.9,278.345,0,0
2.58794,31573.8,278.746,0,0
2.63819,31709.3,279.626,0,0
2.68844,31826.6,280.428,0,0
2.73869,31938.4,281.206,0,0
2.78894,31990,281.509,0,0
2.8392,32024.2,281.674,0,0
2.88945,32127.9,282.42,0,0
2.9397,32250.7,283.324,0,0
2.98995,32305.9,283.769,0,0
3.0402,32343.7,284.097,0,0
3.09045,32145.6,282.575,0,0
3.1407,31890.5,280.606,0,0
3.19095,31705.5,279.095,0,0
3.24121,31536.5,277.689,0,0
3.29146,31530.9,277.655,0,0
3.34171,31559.9,277.912,0,0
3.39196,31604.3,278.308,0,0
3.44221,31651.8,278.732,0,0
3.49246,31798.4,279.893,0,0
3.54271,31963.1,281.19,0,0
3.59296,32089.6,282.219,0,0
3.64322,32209.6,283.203,0,0
3.69347,32218.8,283.325,0,0
3.74372,32210.7,283.311,0,0
3.79397,32146.7,282.812,0,0
3.84422,32074.6,282.244,0,0
3.89447,31947.2,281.228,0,0
3.94472,31812.6,280.154,0,0
3.99497,31775.3,279.888,0,0
4.04523,31749.4,279.717,0,0
4.09548,31766.6,279.909,0,0
4.14573,31788.4,280.138,0,0
4.19598,31929.6,281.282,0,0
4.24623,32081.8,282.511,0,0
4.29648,32162.4,283.142,0,0
4.34673,32237.1,283.724,0,0
4.39698,32233.4,283.795,0,0
4.44724,32224.3,283.831,0,0
4.49749,32161.2,283.267,0,0
4.54774,32094.9,282.667,0,0
4.59799,31714.9,280.057,0,0
4.64824,31320,277.352,0,0
4.69849,31402.1,277.418,0,0
4.74874,31501.5,277.585,0,0
4.79899,35126.9,236.702,0,0
4.84925,38842.6,194.765,0,0
4.8995,64512.2,170.905,0,0
4.94975,90516.1,147.321,0,0
5,90646.1,0,0,0
