/*--------------------------------*- C++ -*----------------------------------*\
| =========                 |                                                 |
| \\      /  F ield         | OpenFOAM: The Open Source CFD Toolbox           |
|  \\    /   O peration     | Version:  2412                                  |
|   \\  /    A nd           | Website:  www.openfoam.com                      |
|    \\/     M anipulation  |                                                 |
\*---------------------------------------------------------------------------*/
FoamFile
{
    version     2.0;
    format      ascii;
    arch        "LSB;label=32;scalar=64";
    class       volScalarField;
    location    "0.0521102";
    object      p;
}
// * * * * * * * * * * * * * * * * * * * * * * * * * * * * * * * * * * * * * //

dimensions      [1 -1 -2 0 0 0 0];

internalField   nonuniform List<scalar> 
100
(
92531
92621.4
98464.3
96505.9
97532.9
92966.5
93024.3
94167.9
99030.7
101255
97628.5
94047.8
90059.1
86350.6
74544.2
41687.2
37614.1
39986.9
41391.9
41993.7
41861.2
41821
41187.4
41807.4
41660
42076.2
41342.3
41812.2
41788.3
42599.3
43460.1
44689.7
44918.8
45333
44496.4
44100
44281
45300.2
49672.5
52863.5
53499.1
53933.6
53942.6
51497.6
46591.7
44378
44130.5
44450.1
44806.2
45032.6
44922.5
44765.6
44983
45361.9
45818.7
46378.6
47095.6
47732.5
48259.4
48662.4
48473.1
47421.7
46438.3
46035.5
46019.9
46246
46724.1
47175.5
47773.3
48231.1
48503.4
48207.9
47767.9
47644.4
47337.6
47759.6
47402.7
47935.7
47376.8
47821.1
47691.6
47485.1
47838.7
47313.9
48109.6
47570.2
48233.6
47747.9
47934.9
47929.7
47756.4
48018.8
47677.3
48045.2
47597.2
47994.1
47644.6
48012.2
47899.4
48029.4
)
;

boundaryField
{
    sides
    {
        type            zeroGradient;
    }
    empty
    {
        type            empty;
    }
}


// ************************************************************************* //
