/*--------------------------------*- C++ -*----------------------------------*\
| =========                 |                                                 |
| \\      /  F ield         | OpenFOAM: The Open Source CFD Toolbox           |
|  \\    /   O peration     | Version:  2412                                  |
|   \\  /    A nd           | Website:  www.openfoam.com                      |
|    \\/     M anipulation  |                                                 |
\*---------------------------------------------------------------------------*/
FoamFile
{
    version     2.0;
    format      ascii;
    arch        "LSB;label=32;scalar=64";
    class       volScalarField;
    location    "0.0521102";
    object      rhoY_Y_N2;
}
// * * * * * * * * * * * * * * * * * * * * * * * * * * * * * * * * * * * * * //

dimensions      [1 -3 0 0 0 0 0];

internalField   nonuniform List<scalar> 
100
(
0.996245
1.01371
1.03172
1.03503
1.01981
0.991262
0.98531
1.00978
1.04881
1.0673
1.04311
1.00809
0.960505
0.962372
0.854046
0.559357
0.503522
0.529741
0.545411
0.548977
0.550967
0.546717
0.544387
0.546947
0.549994
0.550083
0.546811
0.54807
0.551878
0.557102
0.569662
0.579832
0.584998
0.587716
0.580753
0.575939
0.578994
0.58852
0.634873
0.66493
0.670438
0.674591
0.675333
0.651033
0.601815
0.580663
0.579097
0.582348
0.585922
0.848087
0.64296
0.635395
0.629393
0.628217
0.629638
0.633055
0.638116
0.642854
0.646524
0.648856
0.64548
0.63364
0.623102
0.618596
0.617446
0.618933
0.622315
0.626645
0.63176
0.636653
0.638776
0.636226
0.633236
0.63247
0.633411
0.635837
0.637379
0.636141
0.633308
0.622368
0.571984
0.46654
0.336157
0.201762
0.0782957
0.00192929
-0.0238605
-0.0321175
-0.0278624
0.00738347
-0.0166637
-0.000625878
0.000319393
-0.000490597
5.56664e-07
-3.30611e-06
-1.28953e-07
-4.33778e-08
-4.00737e-09
-2.01132e-10
)
;

boundaryField
{
    sides
    {
        type            calculated;
        value           nonuniform List<scalar> 2(0 1.12308);
    }
    empty
    {
        type            empty;
    }
}


// ************************************************************************* //
