/*--------------------------------*- C++ -*----------------------------------*\
| =========                 |                                                 |
| \\      /  F ield         | OpenFOAM: The Open Source CFD Toolbox           |
|  \\    /   O peration     | Version:  2412                                  |
|   \\  /    A nd           | Website:  www.openfoam.com                      |
|    \\/     M anipulation  |                                                 |
\*---------------------------------------------------------------------------*/
FoamFile
{
    version     2.0;
    format      ascii;
    arch        "LSB;label=32;scalar=64";
    class       volScalarField;
    location    "0.0415829";
    object      p;
}
// * * * * * * * * * * * * * * * * * * * * * * * * * * * * * * * * * * * * * //

dimensions      [1 -1 -2 0 0 0 0];

internalField   nonuniform List<scalar> 
100
(
14179
14169.9
14159.2
14146.1
14133.5
14123.4
14117.1
14114.3
14114
14115.2
14116.4
14117
14116.5
14115.5
14113
14094
14062.8
14400.1
26324.9
44975.9
47228.6
44512.4
43170.8
43557.1
44035.9
44784.7
46894.7
48851.9
49577.6
50143.4
50405
48909.9
46941.2
46687.5
47197.6
47942
49868.8
51701.4
52557.6
53152.1
53560.7
53115.6
52868.2
53351.9
54204.3
55429.2
56196.2
56528.7
55766.2
55499.8
56070.9
57187.9
58681.7
59577
60019.7
59204.4
58771.4
59248.4
60481.3
62887.7
64811.1
65473.7
65688.7
63698.3
62681.7
62800.3
63433.5
65402.6
66331.2
68880.8
68148.9
70568.9
69411.4
70562
71398
70831.2
72538.7
70781.2
73623.9
72820.4
75170.3
75529.3
75919.7
75668.5
75971.6
77971
80673.7
84589.9
85805.3
87761.9
85301.8
81999.4
78109.3
77021
75583.4
76322.5
76370.1
77355.6
77852.5
78372.3
)
;

boundaryField
{
    sides
    {
        type            zeroGradient;
    }
    empty
    {
        type            empty;
    }
}


// ************************************************************************* //
