/*--------------------------------*- C++ -*----------------------------------*\
| =========                 |                                                 |
| \\      /  F ield         | OpenFOAM: The Open Source CFD Toolbox           |
|  \\    /   O peration     | Version:  2412                                  |
|   \\  /    A nd           | Website:  www.openfoam.com                      |
|    \\/     M anipulation  |                                                 |
\*---------------------------------------------------------------------------*/
FoamFile
{
    version     2.0;
    format      ascii;
    arch        "LSB;label=32;scalar=64";
    class       volScalarField;
    location    "0.0088181";
    object      rho;
}
// * * * * * * * * * * * * * * * * * * * * * * * * * * * * * * * * * * * * * //

dimensions      [1 -3 0 0 0 0 0];

internalField   nonuniform List<scalar> 
100
(
1.12308
1.12308
1.12308
1.12308
1.12308
1.12308
1.12308
1.12308
1.12308
1.12308
1.12308
1.12308
1.12308
1.12308
1.12308
1.12308
1.12308
1.12308
1.12308
1.12286
1.11795
1.09299
1.04953
1.00701
0.972051
0.942402
0.915401
0.889689
0.864722
0.840385
0.816481
0.793281
0.77027
0.748321
0.726599
0.70515
0.686082
0.664068
0.646748
0.628864
0.608272
0.591558
0.57472
0.559886
0.540509
0.520924
0.505373
0.501062
0.490722
0.466579
0.44468
0.444592
0.475898
0.490101
0.462091
0.430087
0.438676
0.484023
0.496876
0.462017
0.428998
0.436331
0.477756
0.493394
0.47255
0.432588
0.426544
0.452065
0.503013
0.5211
0.511322
0.478618
0.441778
0.412895
0.398424
0.391346
0.384517
0.379124
0.378363
0.378559
0.381132
0.383254
0.383527
0.381557
0.376678
0.375958
0.376239
0.377583
0.380189
0.386694
0.401123
0.403665
0.305208
0.169614
0.160367
0.160357
0.160357
0.160357
0.160357
0.160357
)
;

boundaryField
{
    sides
    {
        type            calculated;
        value           nonuniform List<scalar> 2(0.160357 1.12308);
    }
    empty
    {
        type            empty;
    }
}


// ************************************************************************* //
