/*--------------------------------*- C++ -*----------------------------------*\
| =========                 |                                                 |
| \\      /  F ield         | OpenFOAM: The Open Source CFD Toolbox           |
|  \\    /   O peration     | Version:  2412                                  |
|   \\  /    A nd           | Website:  www.openfoam.com                      |
|    \\/     M anipulation  |                                                 |
\*---------------------------------------------------------------------------*/
FoamFile
{
    version     2.0;
    format      ascii;
    arch        "LSB;label=32;scalar=64";
    class       surfaceScalarField;
    location    "0.00472988";
    object      phiRhoY_Y_N2;
}
// * * * * * * * * * * * * * * * * * * * * * * * * * * * * * * * * * * * * * //

dimensions      [1 0 -1 0 0 0 0];

internalField   nonuniform List<scalar> 
99
(
-3.41061e-13
-2.27374e-13
-2.27374e-13
-1.13687e-13
-1.13687e-13
-9.09495e-13
-9.09495e-13
-4.54747e-13
-5.68434e-13
-1.13687e-12
-5.68434e-13
0
-1.13687e-13
0
0
2.27374e-13
0
0
1.13687e-13
4.54747e-13
5.68434e-13
1.02318e-12
1.13687e-12
1.25056e-12
1.13687e-12
6.82121e-13
6.82121e-13
4.54747e-13
2.27601e-10
1.21546e-07
5.12086e-05
0.0142368
1.26151
19.9995
80.2942
156.283
222.085
275.173
319.616
357.842
391.25
421.198
444.177
463.931
485.243
492.916
496.968
514.656
535.299
529.4
500.716
499.134
534.094
552.96
531.661
502.818
502.251
541.992
553.403
479.72
330.422
188.069
94.6719
43.8653
18.0048
6.49495
2.00295
0.566506
0.155202
0.0404527
0.00975888
0.00168615
4.48054e-05
1.36655e-09
1.14927e-19
7.49373e-36
9.16028e-58
-2.10844e-81
0
0
0
0
0
0
0
0
0
0
0
0
0
0
0
0
0
0
0
0
0
)
;

boundaryField
{
    sides
    {
        type            calculated;
        value           uniform 0;
    }
    empty
    {
        type            empty;
    }
}


// ************************************************************************* //
