/*--------------------------------*- C++ -*----------------------------------*\
| =========                 |                                                 |
| \\      /  F ield         | OpenFOAM: The Open Source CFD Toolbox           |
|  \\    /   O peration     | Version:  2412                                  |
|   \\  /    A nd           | Website:  www.openfoam.com                      |
|    \\/     M anipulation  |                                                 |
\*---------------------------------------------------------------------------*/
FoamFile
{
    version     2.0;
    format      ascii;
    arch        "LSB;label=32;scalar=64";
    class       volVectorField;
    location    "0.00472988";
    object      U;
}
// * * * * * * * * * * * * * * * * * * * * * * * * * * * * * * * * * * * * * //

dimensions      [0 1 -1 0 0 0 0];

internalField   nonuniform List<vector> 
100
(
(-8.72981e-14 0 0)
(-4.16016e-14 0 0)
(-4.32528e-14 0 0)
(-5.14542e-14 0 0)
(8.68007e-15 0 0)
(-1.04359e-13 0 0)
(-2.2833e-13 0 0)
(-1.07827e-13 0 0)
(-1.07298e-13 0 0)
(-1.7568e-13 0 0)
(-1.44254e-13 0 0)
(-6.55289e-14 0 0)
(-5.65777e-14 0 0)
(-4.08442e-14 0 0)
(-2.35699e-14 0 0)
(-4.78372e-15 0 0)
(-1.84476e-14 0 0)
(-8.2367e-15 0 0)
(-9.00125e-15 0 0)
(9.8606e-14 0 0)
(1.29066e-13 0 0)
(1.67683e-13 0 0)
(2.32486e-13 0 0)
(2.63849e-13 0 0)
(2.85731e-13 0 0)
(1.97695e-13 0 0)
(1.59072e-13 0 0)
(3.04057e-13 0 0)
(7.90019e-11 0 0)
(3.67663e-08 0 0)
(1.18071e-05 0 0)
(0.00203404 0 0)
(0.134191 0 0)
(2.43431 0 0)
(13.0754 0 0)
(31.9486 0 0)
(52.205 0 0)
(70.9562 0 0)
(88.1787 0 0)
(105.492 0 0)
(121.4 0 0)
(139.995 0 0)
(154.894 0 0)
(172.084 0 0)
(189.918 0 0)
(202.182 0 0)
(220.032 0 0)
(238.512 0 0)
(256.738 0 0)
(263.914 0 0)
(275.24 0 0)
(290.12 0 0)
(290.803 0 0)
(284.193 0 0)
(278.07 0 0)
(279.088 0 0)
(287.919 0 0)
(287.302 0 0)
(283.551 0 0)
(277.702 0 0)
(277.694 0 0)
(280.145 0 0)
(277.383 0 0)
(279.889 0 0)
(284.34 0 0)
(286.81 0 0)
(285.558 0 0)
(277.255 0 0)
(274.086 0 0)
(275.28 0 0)
(288.489 0 0)
(291.8 0 0)
(239.907 0 0)
(46.7978 0 0)
(0.309521 0 0)
(0.000137192 0 0)
(1.36822e-08 0 0)
(1.63577e-12 0 0)
(-1.04575e-13 0 0)
(-1.56066e-13 0 0)
(-8.27773e-14 0 0)
(3.82879e-15 0 0)
(4.56676e-15 0 0)
(-2.10947e-13 0 0)
(-2.19048e-13 0 0)
(-1.54117e-13 0 0)
(-1.70426e-13 0 0)
(-1.27213e-13 0 0)
(-2.02384e-13 0 0)
(-1.56887e-13 0 0)
(-1.49514e-13 0 0)
(-2.677e-13 0 0)
(-1.80603e-13 0 0)
(-2.44309e-13 0 0)
(-2.60954e-13 0 0)
(-2.95002e-13 0 0)
(-2.52637e-13 0 0)
(-1.47494e-13 0 0)
(-7.05287e-14 0 0)
(-1.06672e-13 0 0)
)
;

boundaryField
{
    sides
    {
        type            fixedValue;
        value           uniform (0 0 0);
    }
    empty
    {
        type            empty;
    }
}


// ************************************************************************* //
