/*--------------------------------*- C++ -*----------------------------------*\
| =========                 |                                                 |
| \\      /  F ield         | OpenFOAM: The Open Source CFD Toolbox           |
|  \\    /   O peration     | Version:  2412                                  |
|   \\  /    A nd           | Website:  www.openfoam.com                      |
|    \\/     M anipulation  |                                                 |
\*---------------------------------------------------------------------------*/
FoamFile
{
    version     2.0;
    format      ascii;
    arch        "LSB;label=32;scalar=64";
    class       volScalarField;
    location    "0.0242048";
    object      TTR;
}
// * * * * * * * * * * * * * * * * * * * * * * * * * * * * * * * * * * * * * //

dimensions      [0 0 0 1 0 0 0];

internalField   nonuniform List<scalar> 
100
(
238.387
238.391
238.225
238.226
238.048
238.057
237.985
238.085
237.915
238.178
237.607
238.449
236.991
239.005
236.161
239.61
235.504
239.743
235.34
239.31
235.558
238.683
235.955
238.024
236.222
237.391
236.247
236.723
235.976
236.118
235.676
235.745
235.566
235.713
235.584
235.512
235.487
236.364
238.564
239.857
239.07
238.525
238.079
236.667
234.703
234.5
234.356
232.301
231.147
232.197
232.664
232.295
232.678
232.808
231.686
231.668
234.193
234.12
229.243
228.543
237.263
241.151
228.377
217.201
230.728
254.116
248.058
212.494
203.049
268.015
305.357
273.516
340.102
276.663
313.08
310.956
287.007
325.055
294.059
313.576
314.509
303.902
314.378
306.286
303.363
310.756
298.93
294.396
295.802
326.277
371.752
409.667
415.58
428.25
419.943
427.625
420.389
425.762
420.374
423.373
)
;

boundaryField
{
    sides
    {
        type            zeroGradient;
    }
    empty
    {
        type            empty;
    }
}


// ************************************************************************* //
