/*--------------------------------*- C++ -*----------------------------------*\
| =========                 |                                                 |
| \\      /  F ield         | OpenFOAM: The Open Source CFD Toolbox           |
|  \\    /   O peration     | Version:  2412                                  |
|   \\  /    A nd           | Website:  www.openfoam.com                      |
|    \\/     M anipulation  |                                                 |
\*---------------------------------------------------------------------------*/
FoamFile
{
    version     2.0;
    format      ascii;
    arch        "LSB;label=32;scalar=64";
    class       surfaceScalarField;
    location    "0.00813043";
    object      phiRhoY_Y_N2;
}
// * * * * * * * * * * * * * * * * * * * * * * * * * * * * * * * * * * * * * //

dimensions      [1 0 -1 0 0 0 0];

internalField   nonuniform List<scalar> 
99
(
5.68434e-13
5.68434e-13
4.54747e-13
1.13687e-13
0
-4.54747e-13
-5.68434e-13
-3.41061e-13
-3.41061e-13
-4.54747e-13
0
-1.13687e-13
-6.82121e-13
-3.41061e-13
0
1.13687e-13
6.82121e-13
4.19504e-11
2.26134e-08
1.00573e-05
0.00319052
0.402752
9.5503
49.6997
108.341
160.255
201.334
235.368
265.386
292.791
318.155
341.658
363.479
383.56
401.952
418.918
433.794
447.881
460.215
469.986
480.456
490.029
496.374
501.095
506.454
518.169
522.258
514.098
509.791
517.71
541.313
543.289
516.13
491.598
502.48
548.536
551.062
516.05
490.371
502.689
548.366
551.876
524.931
492.166
491.332
526.465
573.978
559.572
471.788
330.518
206.143
118.003
60.7537
28.9195
13.1356
5.5676
2.21016
0.807426
0.27368
0.0853942
0.0260816
0.007639
0.00214116
0.00057362
0.000139584
3.11294e-05
6.54423e-06
1.14239e-06
9.32732e-08
1.21243e-10
5.09101e-18
1.88509e-31
1.13175e-50
2.65303e-74
0
0
0
0
0
)
;

boundaryField
{
    sides
    {
        type            calculated;
        value           uniform 0;
    }
    empty
    {
        type            empty;
    }
}


// ************************************************************************* //
