/*--------------------------------*- C++ -*----------------------------------*\
| =========                 |                                                 |
| \\      /  F ield         | OpenFOAM: The Open Source CFD Toolbox           |
|  \\    /   O peration     | Version:  2412                                  |
|   \\  /    A nd           | Website:  www.openfoam.com                      |
|    \\/     M anipulation  |                                                 |
\*---------------------------------------------------------------------------*/
FoamFile
{
    version     2.0;
    format      ascii;
    arch        "LSB;label=32;scalar=64";
    class       volScalarField;
    location    "0.0025";
    object      p;
}
// * * * * * * * * * * * * * * * * * * * * * * * * * * * * * * * * * * * * * //

dimensions      [1 -1 -2 0 0 0 0];

internalField   nonuniform List<scalar> 
1800
(
1.00063
1.00187
1.00306
1.00417
1.00519
1.00611
1.00691
1.0076
1.00818
1.00866
1.00906
1.00939
1.00965
1.00986
1.01002
1.01015
1.01025
1.01033
1.01039
1.01044
1.01048
1.0105
1.01052
1.01054
1.01055
1.01056
1.01057
1.01057
1.01058
1.01058
1.01058
1.01059
1.01059
1.01059
1.01059
1.01059
1.01059
1.01059
1.01059
1.01059
1.01059
1.01059
1.01059
1.01059
1.01059
1.01059
1.01059
1.01059
1.01059
1.01059
1.01059
1.01059
1.01059
1.01059
1.01059
1.01059
1.01059
1.01059
1.01059
1.01059
1.00064
1.00191
1.00312
1.00426
1.00531
1.00624
1.00705
1.00775
1.00834
1.00883
1.00924
1.00956
1.00983
1.01004
1.0102
1.01033
1.01043
1.01051
1.01057
1.01062
1.01066
1.01068
1.0107
1.01072
1.01073
1.01074
1.01075
1.01075
1.01076
1.01076
1.01076
1.01077
1.01077
1.01077
1.01077
1.01077
1.01077
1.01077
1.01077
1.01077
1.01077
1.01077
1.01077
1.01077
1.01077
1.01077
1.01077
1.01077
1.01077
1.01077
1.01077
1.01077
1.01077
1.01077
1.01077
1.01077
1.01077
1.01077
1.01077
1.01077
1.00067
1.002
1.00327
1.00445
1.00554
1.0065
1.00734
1.00806
1.00867
1.00917
1.00958
1.00992
1.01018
1.0104
1.01056
1.0107
1.0108
1.01088
1.01094
1.01098
1.01102
1.01105
1.01107
1.01108
1.0111
1.01111
1.01111
1.01112
1.01112
1.01113
1.01113
1.01113
1.01113
1.01113
1.01113
1.01113
1.01113
1.01113
1.01113
1.01113
1.01113
1.01113
1.01113
1.01113
1.01113
1.01113
1.01113
1.01113
1.01113
1.01113
1.01113
1.01113
1.01113
1.01113
1.01113
1.01113
1.01113
1.01113
1.01113
1.01113
1.00072
1.00213
1.00348
1.00474
1.00589
1.00691
1.00779
1.00854
1.00917
1.00969
1.01011
1.01046
1.01073
1.01094
1.01111
1.01125
1.01135
1.01143
1.01149
1.01154
1.01157
1.0116
1.01162
1.01164
1.01165
1.01166
1.01167
1.01167
1.01168
1.01168
1.01168
1.01168
1.01168
1.01169
1.01169
1.01169
1.01169
1.01169
1.01169
1.01169
1.01169
1.01169
1.01169
1.01169
1.01169
1.01169
1.01169
1.01169
1.01169
1.01169
1.01169
1.01169
1.01169
1.01169
1.01169
1.01169
1.01169
1.01169
1.01169
1.01169
1.00078
1.00231
1.00378
1.00514
1.00637
1.00746
1.0084
1.00919
1.00985
1.0104
1.01084
1.01119
1.01147
1.01169
1.01186
1.012
1.0121
1.01218
1.01224
1.01229
1.01233
1.01235
1.01238
1.01239
1.0124
1.01241
1.01242
1.01242
1.01243
1.01243
1.01243
1.01244
1.01244
1.01244
1.01244
1.01244
1.01244
1.01244
1.01244
1.01244
1.01244
1.01244
1.01244
1.01244
1.01244
1.01244
1.01244
1.01244
1.01244
1.01244
1.01244
1.01244
1.01244
1.01244
1.01244
1.01244
1.01244
1.01244
1.01244
1.01244
1.00086
1.00255
1.00417
1.00566
1.007
1.00818
1.00918
1.01003
1.01073
1.0113
1.01176
1.01213
1.01242
1.01264
1.01282
1.01296
1.01306
1.01315
1.01321
1.01326
1.01329
1.01332
1.01334
1.01336
1.01337
1.01338
1.01338
1.01339
1.01339
1.0134
1.0134
1.0134
1.0134
1.0134
1.0134
1.0134
1.0134
1.0134
1.0134
1.0134
1.0134
1.01341
1.01341
1.01341
1.01341
1.01341
1.01341
1.01341
1.01341
1.01341
1.01341
1.01341
1.01341
1.01341
1.01341
1.01341
1.01341
1.01341
1.01341
1.01341
1.00096
1.00286
1.00466
1.00631
1.00779
1.00907
1.01017
1.01108
1.01182
1.01243
1.01291
1.01329
1.01359
1.01383
1.01401
1.01415
1.01426
1.01434
1.0144
1.01445
1.01448
1.01451
1.01453
1.01455
1.01456
1.01457
1.01458
1.01458
1.01459
1.01459
1.01459
1.01459
1.01459
1.0146
1.0146
1.0146
1.0146
1.0146
1.0146
1.0146
1.0146
1.0146
1.0146
1.0146
1.0146
1.0146
1.0146
1.0146
1.0146
1.0146
1.0146
1.0146
1.0146
1.0146
1.0146
1.0146
1.0146
1.0146
1.0146
1.0146
1.00109
1.00323
1.00526
1.00711
1.00875
1.01017
1.01136
1.01235
1.01315
1.01379
1.0143
1.0147
1.01502
1.01526
1.01544
1.01559
1.0157
1.01578
1.01584
1.01589
1.01593
1.01595
1.01598
1.01599
1.016
1.01601
1.01602
1.01602
1.01603
1.01603
1.01603
1.01603
1.01604
1.01604
1.01604
1.01604
1.01604
1.01604
1.01604
1.01604
1.01604
1.01604
1.01604
1.01604
1.01604
1.01604
1.01604
1.01604
1.01604
1.01604
1.01604
1.01604
1.01604
1.01604
1.01604
1.01604
1.01604
1.01604
1.01604
1.01604
1.00125
1.00369
1.00599
1.00808
1.00992
1.01149
1.0128
1.01388
1.01474
1.01543
1.01597
1.01639
1.01671
1.01696
1.01715
1.0173
1.01741
1.01749
1.01756
1.0176
1.01764
1.01767
1.01769
1.01771
1.01772
1.01773
1.01773
1.01774
1.01774
1.01774
1.01775
1.01775
1.01775
1.01775
1.01775
1.01775
1.01775
1.01775
1.01775
1.01775
1.01775
1.01775
1.01775
1.01775
1.01775
1.01775
1.01775
1.01775
1.01775
1.01775
1.01775
1.01775
1.01775
1.01775
1.01775
1.01775
1.01775
1.01775
1.01775
1.01775
1.00143
1.00424
1.00687
1.00925
1.01132
1.01307
1.01452
1.01569
1.01662
1.01736
1.01793
1.01837
1.01871
1.01897
1.01916
1.01931
1.01942
1.01951
1.01957
1.01962
1.01966
1.01969
1.01971
1.01972
1.01973
1.01974
1.01975
1.01975
1.01976
1.01976
1.01976
1.01976
1.01976
1.01977
1.01977
1.01977
1.01977
1.01977
1.01977
1.01977
1.01977
1.01977
1.01977
1.01977
1.01977
1.01977
1.01977
1.01977
1.01977
1.01977
1.01977
1.01977
1.01977
1.01977
1.01977
1.01977
1.01977
1.01977
1.01977
1.01977
1.00166
1.0049
1.00793
1.01064
1.01298
1.01494
1.01654
1.01782
1.01883
1.01962
1.02023
1.02069
1.02104
1.02131
1.02151
1.02166
1.02178
1.02186
1.02193
1.02197
1.02201
1.02204
1.02206
1.02207
1.02208
1.02209
1.0221
1.0221
1.02211
1.02211
1.02211
1.02211
1.02212
1.02212
1.02212
1.02212
1.02212
1.02212
1.02212
1.02212
1.02212
1.02212
1.02212
1.02212
1.02212
1.02212
1.02212
1.02212
1.02212
1.02212
1.02212
1.02212
1.02212
1.02212
1.02212
1.02212
1.02212
1.02212
1.02212
1.02212
1.00193
1.0057
1.0092
1.01231
1.01496
1.01715
1.01893
1.02033
1.02142
1.02226
1.0229
1.02339
1.02375
1.02403
1.02423
1.02439
1.0245
1.02459
1.02465
1.0247
1.02474
1.02477
1.02479
1.0248
1.02481
1.02482
1.02483
1.02483
1.02484
1.02484
1.02484
1.02484
1.02484
1.02484
1.02484
1.02484
1.02484
1.02485
1.02485
1.02485
1.02485
1.02485
1.02485
1.02485
1.02485
1.02485
1.02485
1.02485
1.02485
1.02485
1.02485
1.02485
1.02485
1.02485
1.02485
1.02485
1.02485
1.02485
1.02485
1.02485
1.00226
1.00667
1.01072
1.01429
1.0173
1.01976
1.02172
1.02325
1.02443
1.02532
1.026
1.02651
1.02689
1.02717
1.02738
1.02754
1.02765
1.02774
1.02781
1.02785
1.02789
1.02792
1.02794
1.02795
1.02796
1.02797
1.02798
1.02798
1.02798
1.02799
1.02799
1.02799
1.02799
1.02799
1.02799
1.02799
1.02799
1.02799
1.02799
1.02799
1.02799
1.02799
1.02799
1.02799
1.02799
1.02799
1.02799
1.02799
1.02799
1.02799
1.02799
1.02799
1.02799
1.02799
1.02799
1.02799
1.02799
1.02799
1.02799
1.02799
1.00266
1.00782
1.01254
1.01664
1.02006
1.02282
1.02498
1.02665
1.02792
1.02887
1.02958
1.03011
1.0305
1.03079
1.03101
1.03116
1.03128
1.03137
1.03143
1.03148
1.03151
1.03154
1.03156
1.03157
1.03159
1.03159
1.0316
1.0316
1.03161
1.03161
1.03161
1.03161
1.03161
1.03161
1.03162
1.03162
1.03162
1.03162
1.03162
1.03162
1.03162
1.03162
1.03162
1.03162
1.03162
1.03162
1.03162
1.03162
1.03162
1.03162
1.03162
1.03162
1.03162
1.03162
1.03162
1.03162
1.03162
1.03162
1.03162
1.03162
1.00314
1.00922
1.01472
1.01945
1.02332
1.0264
1.02879
1.0306
1.03195
1.03296
1.03371
1.03425
1.03466
1.03495
1.03517
1.03533
1.03545
1.03553
1.03559
1.03564
1.03568
1.0357
1.03572
1.03573
1.03575
1.03575
1.03576
1.03576
1.03577
1.03577
1.03577
1.03577
1.03577
1.03577
1.03577
1.03577
1.03577
1.03578
1.03578
1.03578
1.03578
1.03578
1.03578
1.03578
1.03578
1.03578
1.03578
1.03578
1.03578
1.03578
1.03578
1.03578
1.03578
1.03578
1.03578
1.03578
1.03578
1.03578
1.03578
1.03578
1.00373
1.0109
1.01733
1.02278
1.02717
1.0306
1.03321
1.03517
1.03661
1.03767
1.03845
1.03901
1.03942
1.03972
1.03994
1.0401
1.04022
1.0403
1.04036
1.04041
1.04044
1.04047
1.04049
1.0405
1.04051
1.04052
1.04052
1.04053
1.04053
1.04053
1.04053
1.04054
1.04054
1.04054
1.04054
1.04054
1.04054
1.04054
1.04054
1.04054
1.04054
1.04054
1.04054
1.04054
1.04054
1.04054
1.04054
1.04054
1.04054
1.04054
1.04054
1.04054
1.04054
1.04054
1.04054
1.04054
1.04054
1.04054
1.04054
1.04054
1.00444
1.01294
1.02048
1.02674
1.03171
1.03551
1.03836
1.04046
1.04198
1.04309
1.04389
1.04447
1.04488
1.04518
1.0454
1.04556
1.04567
1.04576
1.04582
1.04586
1.0459
1.04592
1.04594
1.04595
1.04596
1.04597
1.04597
1.04598
1.04598
1.04598
1.04598
1.04599
1.04599
1.04599
1.04599
1.04599
1.04599
1.04599
1.04599
1.04599
1.04599
1.04599
1.04599
1.04599
1.04599
1.04599
1.04599
1.04599
1.04599
1.04599
1.04599
1.04599
1.04599
1.04599
1.04599
1.04599
1.04599
1.04599
1.04599
1.04599
1.00532
1.01544
1.02426
1.03146
1.03705
1.04125
1.04433
1.04656
1.04816
1.04931
1.05013
1.05071
1.05113
1.05143
1.05164
1.0518
1.05191
1.05199
1.05205
1.0521
1.05213
1.05215
1.05217
1.05218
1.05219
1.0522
1.0522
1.0522
1.05221
1.05221
1.05221
1.05221
1.05221
1.05221
1.05221
1.05221
1.05221
1.05221
1.05221
1.05222
1.05222
1.05222
1.05222
1.05222
1.05222
1.05222
1.05222
1.05222
1.05222
1.05222
1.05222
1.05222
1.05222
1.05222
1.05222
1.05222
1.05222
1.05222
1.05222
1.05222
1.0064
1.01849
1.02885
1.0371
1.04336
1.04795
1.05125
1.0536
1.05526
1.05644
1.05727
1.05785
1.05827
1.05856
1.05877
1.05892
1.05903
1.05911
1.05917
1.05921
1.05924
1.05926
1.05928
1.05929
1.0593
1.0593
1.05931
1.05931
1.05931
1.05932
1.05932
1.05932
1.05932
1.05932
1.05932
1.05932
1.05932
1.05932
1.05932
1.05932
1.05932
1.05932
1.05932
1.05932
1.05932
1.05932
1.05932
1.05932
1.05932
1.05932
1.05932
1.05932
1.05932
1.05932
1.05932
1.05932
1.05932
1.05932
1.05932
1.05932
1.00776
1.02227
1.03442
1.04384
1.05079
1.05576
1.05926
1.06171
1.06341
1.0646
1.06542
1.066
1.06641
1.0667
1.0669
1.06705
1.06715
1.06723
1.06728
1.06732
1.06735
1.06737
1.06739
1.0674
1.0674
1.06741
1.06742
1.06742
1.06742
1.06742
1.06742
1.06743
1.06743
1.06743
1.06743
1.06743
1.06743
1.06743
1.06743
1.06743
1.06743
1.06743
1.06743
1.06743
1.06743
1.06743
1.06743
1.06743
1.06743
1.06743
1.06743
1.06743
1.06743
1.06743
1.06743
1.06743
1.06743
1.06743
1.06743
1.06743
1.00949
1.02698
1.04121
1.05189
1.05954
1.06486
1.06852
1.07103
1.07275
1.07393
1.07474
1.07531
1.0757
1.07598
1.07617
1.07631
1.07641
1.07648
1.07653
1.07657
1.0766
1.07661
1.07663
1.07664
1.07665
1.07665
1.07666
1.07666
1.07666
1.07666
1.07666
1.07666
1.07667
1.07667
1.07667
1.07667
1.07667
1.07667
1.07667
1.07667
1.07667
1.07667
1.07667
1.07667
1.07667
1.07667
1.07667
1.07667
1.07667
1.07667
1.07667
1.07667
1.07667
1.07667
1.07667
1.07667
1.07667
1.07667
1.07667
1.07667
1.01172
1.03291
1.04954
1.06154
1.06983
1.07544
1.0792
1.08173
1.08343
1.08459
1.08537
1.08592
1.08629
1.08655
1.08674
1.08687
1.08696
1.08702
1.08707
1.0871
1.08713
1.08715
1.08716
1.08717
1.08717
1.08718
1.08718
1.08719
1.08719
1.08719
1.08719
1.08719
1.08719
1.08719
1.08719
1.08719
1.08719
1.08719
1.08719
1.08719
1.08719
1.08719
1.08719
1.08719
1.08719
1.08719
1.08719
1.08719
1.08719
1.08719
1.08719
1.08719
1.08719
1.08719
1.08719
1.08719
1.08719
1.08719
1.08719
1.08719
1.01468
1.04047
1.05979
1.0731
1.08194
1.08772
1.0915
1.09399
1.09564
1.09675
1.09749
1.098
1.09835
1.0986
1.09876
1.09888
1.09897
1.09903
1.09907
1.0991
1.09912
1.09914
1.09915
1.09916
1.09916
1.09917
1.09917
1.09917
1.09918
1.09918
1.09918
1.09918
1.09918
1.09918
1.09918
1.09918
1.09918
1.09918
1.09918
1.09918
1.09918
1.09918
1.09918
1.09918
1.09918
1.09918
1.09918
1.09918
1.09918
1.09918
1.09918
1.09918
1.09918
1.09918
1.09918
1.09918
1.09918
1.09918
1.09918
1.09918
1.01871
1.05023
1.07245
1.08694
1.09613
1.10194
1.10564
1.10802
1.10958
1.11061
1.1113
1.11177
1.11208
1.1123
1.11246
1.11256
1.11264
1.11269
1.11273
1.11276
1.11278
1.11279
1.1128
1.11281
1.11281
1.11282
1.11282
1.11282
1.11282
1.11282
1.11282
1.11283
1.11283
1.11283
1.11283
1.11283
1.11283
1.11283
1.11283
1.11283
1.11283
1.11283
1.11283
1.11283
1.11283
1.11283
1.11283
1.11283
1.11283
1.11283
1.11283
1.11283
1.11283
1.11283
1.11283
1.11283
1.11283
1.11283
1.11283
1.11283
1.02444
1.06301
1.08814
1.10348
1.11272
1.11835
1.12185
1.12405
1.12547
1.1264
1.12701
1.12743
1.12771
1.1279
1.12803
1.12813
1.12819
1.12824
1.12827
1.12829
1.12831
1.12832
1.12833
1.12834
1.12834
1.12835
1.12835
1.12835
1.12835
1.12835
1.12835
1.12835
1.12835
1.12835
1.12835
1.12836
1.12836
1.12836
1.12836
1.12836
1.12836
1.12836
1.12836
1.12836
1.12836
1.12836
1.12836
1.12836
1.12836
1.12836
1.12836
1.12836
1.12836
1.12836
1.12836
1.12836
1.12836
1.12836
1.12836
1.12836
1.03298
1.07999
1.10761
1.12317
1.13204
1.13724
1.14038
1.14233
1.14356
1.14436
1.14489
1.14524
1.14548
1.14564
1.14575
1.14583
1.14588
1.14592
1.14595
1.14597
1.14598
1.14599
1.146
1.14601
1.14601
1.14601
1.14601
1.14602
1.14602
1.14602
1.14602
1.14602
1.14602
1.14602
1.14602
1.14602
1.14602
1.14602
1.14602
1.14602
1.14602
1.14602
1.14602
1.14602
1.14602
1.14602
1.14602
1.14602
1.14602
1.14602
1.14602
1.14602
1.14602
1.14602
1.14602
1.14602
1.14602
1.14602
1.14602
1.14602
1.04649
1.10284
1.13168
1.14647
1.15441
1.15889
1.16152
1.16313
1.16414
1.16479
1.16521
1.16549
1.16568
1.16581
1.1659
1.16596
1.166
1.16603
1.16605
1.16607
1.16608
1.16609
1.16609
1.1661
1.1661
1.1661
1.1661
1.1661
1.16611
1.16611
1.16611
1.16611
1.16611
1.16611
1.16611
1.16611
1.16611
1.16611
1.16611
1.16611
1.16611
1.16611
1.16611
1.16611
1.16611
1.16611
1.16611
1.16611
1.16611
1.16611
1.16611
1.16611
1.16611
1.16611
1.16611
1.16611
1.16611
1.16611
1.16611
1.16611
1.06934
1.13382
1.16122
1.1738
1.18014
1.18359
1.18558
1.18677
1.18752
1.18799
1.1883
1.1885
1.18864
1.18873
1.18879
1.18884
1.18887
1.18889
1.18891
1.18892
1.18893
1.18893
1.18893
1.18894
1.18894
1.18894
1.18894
1.18894
1.18894
1.18894
1.18894
1.18894
1.18895
1.18895
1.18895
1.18895
1.18895
1.18895
1.18895
1.18895
1.18895
1.18895
1.18895
1.18895
1.18895
1.18895
1.18895
1.18895
1.18895
1.18895
1.18895
1.18895
1.18895
1.18895
1.18895
1.18895
1.18895
1.18895
1.18895
1.18895
1.11063
1.17564
1.19688
1.20545
1.20951
1.21166
1.21288
1.2136
1.21405
1.21433
1.21452
1.21464
1.21472
1.21478
1.21481
1.21484
1.21486
1.21487
1.21488
1.21489
1.21489
1.21489
1.2149
1.2149
1.2149
1.2149
1.2149
1.2149
1.2149
1.2149
1.2149
1.2149
1.2149
1.2149
1.2149
1.2149
1.2149
1.2149
1.2149
1.2149
1.2149
1.2149
1.2149
1.2149
1.2149
1.2149
1.2149
1.2149
1.2149
1.2149
1.2149
1.2149
1.2149
1.2149
1.2149
1.2149
1.2149
1.2149
1.2149
1.2149
1.2255
1.26733
1.27583
1.27875
1.28007
1.28075
1.28114
1.28137
1.28151
1.2816
1.28165
1.28169
1.28172
1.28173
1.28175
1.28175
1.28176
1.28176
1.28177
1.28177
1.28177
1.28177
1.28177
1.28177
1.28177
1.28177
1.28177
1.28177
1.28177
1.28177
1.28177
1.28177
1.28177
1.28177
1.28177
1.28177
1.28177
1.28177
1.28177
1.28177
1.28177
1.28177
1.28177
1.28177
1.28177
1.28177
1.28177
1.28177
1.28177
1.28177
1.28177
1.28177
1.28177
1.28177
1.28177
1.28177
1.28177
1.28177
1.28177
1.28177
)
;

boundaryField
{
    top
    {
        type            zeroGradient;
    }
    inlet
    {
        type            fixedValue;
        value           uniform 1;
    }
    outlet
    {
        type            zeroGradient;
    }
    bottom
    {
        type            symmetryPlane;
    }
    frontAndBack
    {
        type            empty;
    }
}


// ************************************************************************* //
