/*--------------------------------*- C++ -*----------------------------------*\
| =========                 |                                                 |
| \\      /  F ield         | OpenFOAM: The Open Source CFD Toolbox           |
|  \\    /   O peration     | Version:  2412                                  |
|   \\  /    A nd           | Website:  www.openfoam.com                      |
|    \\/     M anipulation  |                                                 |
\*---------------------------------------------------------------------------*/
FoamFile
{
    version     2.0;
    format      ascii;
    arch        "LSB;label=32;scalar=64";
    class       volScalarField;
    location    "0.0025";
    object      p;
}
// * * * * * * * * * * * * * * * * * * * * * * * * * * * * * * * * * * * * * //

dimensions      [1 -1 -2 0 0 0 0];

internalField   nonuniform List<scalar> 
1800
(
1.00061
1.00182
1.00298
1.00407
1.00506
1.00595
1.00673
1.0074
1.00797
1.00844
1.00883
1.00914
1.0094
1.0096
1.00976
1.00988
1.00998
1.01006
1.01011
1.01016
1.01019
1.01022
1.01024
1.01025
1.01027
1.01027
1.01028
1.01029
1.01029
1.01029
1.0103
1.0103
1.0103
1.0103
1.0103
1.0103
1.0103
1.0103
1.0103
1.0103
1.0103
1.0103
1.0103
1.0103
1.0103
1.0103
1.0103
1.0103
1.0103
1.0103
1.0103
1.0103
1.0103
1.0103
1.0103
1.0103
1.0103
1.0103
1.0103
1.0103
1.00063
1.00186
1.00305
1.00416
1.00517
1.00608
1.00687
1.00755
1.00813
1.00861
1.009
1.00932
1.00957
1.00977
1.00993
1.01006
1.01016
1.01023
1.01029
1.01034
1.01037
1.0104
1.01042
1.01043
1.01044
1.01045
1.01046
1.01046
1.01047
1.01047
1.01047
1.01047
1.01048
1.01048
1.01048
1.01048
1.01048
1.01048
1.01048
1.01048
1.01048
1.01048
1.01048
1.01048
1.01048
1.01048
1.01048
1.01048
1.01048
1.01048
1.01048
1.01048
1.01048
1.01048
1.01048
1.01048
1.01048
1.01048
1.01048
1.01048
1.00066
1.00195
1.00319
1.00435
1.0054
1.00634
1.00716
1.00786
1.00845
1.00894
1.00934
1.00966
1.00992
1.01013
1.01029
1.01042
1.01052
1.01059
1.01065
1.0107
1.01073
1.01076
1.01078
1.01079
1.0108
1.01081
1.01082
1.01082
1.01083
1.01083
1.01083
1.01083
1.01083
1.01084
1.01084
1.01084
1.01084
1.01084
1.01084
1.01084
1.01084
1.01084
1.01084
1.01084
1.01084
1.01084
1.01084
1.01084
1.01084
1.01084
1.01084
1.01084
1.01084
1.01084
1.01084
1.01084
1.01084
1.01084
1.01084
1.01084
1.0007
1.00208
1.0034
1.00463
1.00575
1.00674
1.0076
1.00833
1.00895
1.00945
1.00986
1.01019
1.01046
1.01067
1.01083
1.01096
1.01106
1.01114
1.0112
1.01124
1.01128
1.0113
1.01132
1.01134
1.01135
1.01136
1.01136
1.01137
1.01137
1.01138
1.01138
1.01138
1.01138
1.01138
1.01138
1.01138
1.01138
1.01138
1.01138
1.01138
1.01138
1.01138
1.01138
1.01138
1.01138
1.01138
1.01138
1.01138
1.01138
1.01138
1.01138
1.01138
1.01138
1.01138
1.01138
1.01138
1.01138
1.01138
1.01138
1.01138
1.00076
1.00226
1.0037
1.00503
1.00623
1.00729
1.0082
1.00898
1.00962
1.01015
1.01057
1.01092
1.01119
1.0114
1.01157
1.0117
1.0118
1.01188
1.01194
1.01198
1.01202
1.01204
1.01206
1.01208
1.01209
1.0121
1.01211
1.01211
1.01212
1.01212
1.01212
1.01212
1.01212
1.01212
1.01212
1.01212
1.01213
1.01213
1.01213
1.01213
1.01213
1.01213
1.01213
1.01213
1.01213
1.01213
1.01213
1.01213
1.01213
1.01213
1.01213
1.01213
1.01213
1.01213
1.01213
1.01213
1.01213
1.01213
1.01213
1.01213
1.00084
1.0025
1.00408
1.00554
1.00685
1.00799
1.00898
1.0098
1.01049
1.01104
1.01149
1.01184
1.01213
1.01235
1.01252
1.01265
1.01275
1.01283
1.01289
1.01293
1.01297
1.013
1.01302
1.01303
1.01304
1.01305
1.01306
1.01306
1.01307
1.01307
1.01307
1.01307
1.01307
1.01308
1.01308
1.01308
1.01308
1.01308
1.01308
1.01308
1.01308
1.01308
1.01308
1.01308
1.01308
1.01308
1.01308
1.01308
1.01308
1.01308
1.01308
1.01308
1.01308
1.01308
1.01308
1.01308
1.01308
1.01308
1.01308
1.01308
1.00094
1.0028
1.00456
1.00618
1.00762
1.00888
1.00995
1.01084
1.01156
1.01215
1.01262
1.01299
1.01329
1.01351
1.01369
1.01382
1.01393
1.01401
1.01407
1.01411
1.01415
1.01417
1.01419
1.01421
1.01422
1.01423
1.01424
1.01424
1.01424
1.01425
1.01425
1.01425
1.01425
1.01425
1.01425
1.01425
1.01425
1.01425
1.01425
1.01425
1.01425
1.01425
1.01425
1.01425
1.01425
1.01425
1.01425
1.01425
1.01425
1.01425
1.01425
1.01425
1.01425
1.01425
1.01425
1.01425
1.01425
1.01425
1.01425
1.01425
1.00107
1.00317
1.00515
1.00697
1.00857
1.00996
1.01113
1.01209
1.01288
1.0135
1.014
1.01439
1.01469
1.01492
1.0151
1.01524
1.01535
1.01543
1.01549
1.01554
1.01557
1.0156
1.01562
1.01563
1.01564
1.01565
1.01566
1.01566
1.01567
1.01567
1.01567
1.01567
1.01567
1.01567
1.01568
1.01568
1.01568
1.01568
1.01568
1.01568
1.01568
1.01568
1.01568
1.01568
1.01568
1.01568
1.01568
1.01568
1.01568
1.01568
1.01568
1.01568
1.01568
1.01568
1.01568
1.01568
1.01568
1.01568
1.01568
1.01568
1.00122
1.00362
1.00587
1.00792
1.00973
1.01127
1.01255
1.0136
1.01444
1.01511
1.01564
1.01605
1.01636
1.01661
1.01679
1.01693
1.01704
1.01712
1.01718
1.01723
1.01726
1.01729
1.01731
1.01733
1.01734
1.01735
1.01735
1.01736
1.01736
1.01736
1.01736
1.01737
1.01737
1.01737
1.01737
1.01737
1.01737
1.01737
1.01737
1.01737
1.01737
1.01737
1.01737
1.01737
1.01737
1.01737
1.01737
1.01737
1.01737
1.01737
1.01737
1.01737
1.01737
1.01737
1.01737
1.01737
1.01737
1.01737
1.01737
1.01737
1.00141
1.00416
1.00675
1.00908
1.01111
1.01283
1.01425
1.01539
1.01631
1.01702
1.01758
1.01801
1.01834
1.01859
1.01878
1.01892
1.01903
1.01911
1.01918
1.01922
1.01926
1.01928
1.0193
1.01932
1.01933
1.01934
1.01934
1.01935
1.01935
1.01935
1.01936
1.01936
1.01936
1.01936
1.01936
1.01936
1.01936
1.01936
1.01936
1.01936
1.01936
1.01936
1.01936
1.01936
1.01936
1.01936
1.01936
1.01936
1.01936
1.01936
1.01936
1.01936
1.01936
1.01936
1.01936
1.01936
1.01936
1.01936
1.01936
1.01936
1.00163
1.00482
1.0078
1.01046
1.01276
1.01468
1.01625
1.0175
1.01849
1.01926
1.01985
1.0203
1.02064
1.0209
1.0211
1.02125
1.02136
1.02144
1.0215
1.02155
1.02158
1.02161
1.02163
1.02164
1.02166
1.02166
1.02167
1.02167
1.02168
1.02168
1.02168
1.02168
1.02168
1.02169
1.02169
1.02169
1.02169
1.02169
1.02169
1.02169
1.02169
1.02169
1.02169
1.02169
1.02169
1.02169
1.02169
1.02169
1.02169
1.02169
1.02169
1.02169
1.02169
1.02169
1.02169
1.02169
1.02169
1.02169
1.02169
1.02169
1.0019
1.00561
1.00906
1.01211
1.01471
1.01687
1.01861
1.01998
1.02105
1.02187
1.0225
1.02297
1.02333
1.0236
1.0238
1.02395
1.02406
1.02414
1.0242
1.02425
1.02428
1.02431
1.02433
1.02434
1.02435
1.02436
1.02437
1.02437
1.02438
1.02438
1.02438
1.02438
1.02438
1.02438
1.02438
1.02439
1.02439
1.02439
1.02439
1.02439
1.02439
1.02439
1.02439
1.02439
1.02439
1.02439
1.02439
1.02439
1.02439
1.02439
1.02439
1.02439
1.02439
1.02439
1.02439
1.02439
1.02439
1.02439
1.02439
1.02439
1.00223
1.00657
1.01056
1.01407
1.01703
1.01945
1.02137
1.02288
1.02403
1.02491
1.02557
1.02606
1.02643
1.02671
1.02691
1.02706
1.02718
1.02726
1.02732
1.02737
1.0274
1.02743
1.02745
1.02746
1.02747
1.02748
1.02749
1.02749
1.02749
1.0275
1.0275
1.0275
1.0275
1.0275
1.0275
1.0275
1.0275
1.0275
1.0275
1.0275
1.0275
1.0275
1.0275
1.0275
1.0275
1.0275
1.0275
1.0275
1.0275
1.0275
1.0275
1.0275
1.0275
1.0275
1.0275
1.0275
1.0275
1.0275
1.0275
1.0275
1.00262
1.00771
1.01236
1.01641
1.01977
1.02248
1.02461
1.02624
1.02749
1.02842
1.02912
1.02963
1.03001
1.0303
1.0305
1.03066
1.03077
1.03086
1.03092
1.03096
1.031
1.03102
1.03104
1.03105
1.03107
1.03107
1.03108
1.03108
1.03109
1.03109
1.03109
1.03109
1.03109
1.03109
1.03109
1.03109
1.03109
1.03109
1.03109
1.03109
1.0311
1.0311
1.0311
1.0311
1.0311
1.0311
1.0311
1.0311
1.0311
1.0311
1.0311
1.0311
1.0311
1.0311
1.0311
1.0311
1.0311
1.0311
1.0311
1.0311
1.0031
1.00909
1.01453
1.01918
1.02301
1.02604
1.02838
1.03016
1.03149
1.03248
1.03321
1.03374
1.03413
1.03442
1.03463
1.03479
1.0349
1.03498
1.03505
1.03509
1.03512
1.03515
1.03517
1.03518
1.03519
1.0352
1.0352
1.03521
1.03521
1.03521
1.03522
1.03522
1.03522
1.03522
1.03522
1.03522
1.03522
1.03522
1.03522
1.03522
1.03522
1.03522
1.03522
1.03522
1.03522
1.03522
1.03522
1.03522
1.03522
1.03522
1.03522
1.03522
1.03522
1.03522
1.03522
1.03522
1.03522
1.03522
1.03522
1.03522
1.00368
1.01077
1.01712
1.02249
1.02682
1.0302
1.03277
1.0347
1.03612
1.03715
1.03791
1.03847
1.03887
1.03916
1.03937
1.03952
1.03964
1.03972
1.03978
1.03982
1.03986
1.03988
1.0399
1.03991
1.03992
1.03993
1.03993
1.03994
1.03994
1.03994
1.03994
1.03995
1.03995
1.03995
1.03995
1.03995
1.03995
1.03995
1.03995
1.03995
1.03995
1.03995
1.03995
1.03995
1.03995
1.03995
1.03995
1.03995
1.03995
1.03995
1.03995
1.03995
1.03995
1.03995
1.03995
1.03995
1.03995
1.03995
1.03995
1.03995
1.00439
1.01279
1.02024
1.02643
1.03133
1.03508
1.03789
1.03995
1.04145
1.04254
1.04332
1.04388
1.04429
1.04458
1.0448
1.04495
1.04506
1.04514
1.0452
1.04524
1.04527
1.0453
1.04531
1.04533
1.04534
1.04534
1.04535
1.04535
1.04535
1.04536
1.04536
1.04536
1.04536
1.04536
1.04536
1.04536
1.04536
1.04536
1.04536
1.04536
1.04536
1.04536
1.04536
1.04536
1.04536
1.04536
1.04536
1.04536
1.04536
1.04536
1.04536
1.04536
1.04536
1.04536
1.04536
1.04536
1.04536
1.04536
1.04536
1.04536
1.00526
1.01527
1.024
1.03112
1.03664
1.04078
1.04382
1.04602
1.04759
1.04872
1.04952
1.05009
1.0505
1.05079
1.051
1.05115
1.05126
1.05134
1.0514
1.05144
1.05147
1.05149
1.05151
1.05152
1.05153
1.05154
1.05154
1.05154
1.05155
1.05155
1.05155
1.05155
1.05155
1.05155
1.05155
1.05155
1.05155
1.05155
1.05155
1.05155
1.05155
1.05155
1.05155
1.05155
1.05155
1.05155
1.05155
1.05155
1.05155
1.05155
1.05155
1.05155
1.05155
1.05155
1.05155
1.05155
1.05155
1.05155
1.05155
1.05155
1.00634
1.01831
1.02856
1.03673
1.04291
1.04745
1.05071
1.05302
1.05466
1.05581
1.05662
1.05719
1.0576
1.05789
1.05809
1.05824
1.05835
1.05842
1.05848
1.05852
1.05855
1.05857
1.05858
1.05859
1.0586
1.05861
1.05861
1.05862
1.05862
1.05862
1.05862
1.05862
1.05862
1.05862
1.05863
1.05863
1.05863
1.05863
1.05863
1.05863
1.05863
1.05863
1.05863
1.05863
1.05863
1.05863
1.05863
1.05863
1.05863
1.05863
1.05863
1.05863
1.05863
1.05863
1.05863
1.05863
1.05863
1.05863
1.05863
1.05863
1.00769
1.02207
1.0341
1.04343
1.0503
1.05522
1.05868
1.06109
1.06277
1.06393
1.06475
1.06531
1.06571
1.06599
1.06619
1.06633
1.06644
1.06651
1.06656
1.0666
1.06663
1.06665
1.06666
1.06667
1.06668
1.06668
1.06669
1.06669
1.06669
1.0667
1.0667
1.0667
1.0667
1.0667
1.0667
1.0667
1.0667
1.0667
1.0667
1.0667
1.0667
1.0667
1.0667
1.0667
1.0667
1.0667
1.0667
1.0667
1.0667
1.0667
1.0667
1.0667
1.0667
1.0667
1.0667
1.0667
1.0667
1.0667
1.0667
1.0667
1.00941
1.02676
1.04087
1.05146
1.05902
1.06429
1.0679
1.07038
1.07207
1.07323
1.07403
1.07459
1.07497
1.07524
1.07543
1.07557
1.07567
1.07573
1.07578
1.07582
1.07584
1.07586
1.07588
1.07589
1.07589
1.0759
1.0759
1.07591
1.07591
1.07591
1.07591
1.07591
1.07591
1.07591
1.07591
1.07591
1.07591
1.07591
1.07591
1.07591
1.07591
1.07591
1.07591
1.07591
1.07591
1.07591
1.07591
1.07591
1.07591
1.07591
1.07591
1.07591
1.07591
1.07591
1.07591
1.07591
1.07591
1.07591
1.07591
1.07591
1.01164
1.03267
1.04917
1.06107
1.06929
1.07484
1.07856
1.08105
1.08273
1.08387
1.08464
1.08517
1.08554
1.0858
1.08597
1.0861
1.08619
1.08625
1.0863
1.08633
1.08636
1.08637
1.08639
1.08639
1.0864
1.08641
1.08641
1.08641
1.08641
1.08642
1.08642
1.08642
1.08642
1.08642
1.08642
1.08642
1.08642
1.08642
1.08642
1.08642
1.08642
1.08642
1.08642
1.08642
1.08642
1.08642
1.08642
1.08642
1.08642
1.08642
1.08642
1.08642
1.08642
1.08642
1.08642
1.08642
1.08642
1.08642
1.08642
1.08642
1.01458
1.0402
1.05938
1.0726
1.08136
1.08709
1.09083
1.09329
1.09492
1.09601
1.09674
1.09724
1.09759
1.09782
1.09799
1.09811
1.09819
1.09825
1.09829
1.09832
1.09834
1.09835
1.09836
1.09837
1.09838
1.09838
1.09839
1.09839
1.09839
1.09839
1.09839
1.09839
1.09839
1.09839
1.09839
1.09839
1.09839
1.09839
1.09839
1.09839
1.09839
1.0984
1.0984
1.0984
1.0984
1.0984
1.0984
1.0984
1.0984
1.0984
1.0984
1.0984
1.0984
1.0984
1.0984
1.0984
1.0984
1.0984
1.0984
1.0984
1.0186
1.04993
1.07202
1.08641
1.09554
1.1013
1.10496
1.10732
1.10885
1.10987
1.11055
1.111
1.11132
1.11153
1.11168
1.11178
1.11186
1.11191
1.11195
1.11197
1.11199
1.11201
1.11202
1.11202
1.11203
1.11203
1.11203
1.11204
1.11204
1.11204
1.11204
1.11204
1.11204
1.11204
1.11204
1.11204
1.11204
1.11204
1.11204
1.11204
1.11204
1.11204
1.11204
1.11204
1.11204
1.11204
1.11204
1.11204
1.11204
1.11204
1.11204
1.11204
1.11204
1.11204
1.11204
1.11204
1.11204
1.11204
1.11204
1.11204
1.02431
1.06269
1.08769
1.10294
1.11212
1.11771
1.12117
1.12335
1.12475
1.12567
1.12627
1.12668
1.12696
1.12715
1.12728
1.12737
1.12743
1.12747
1.12751
1.12753
1.12754
1.12756
1.12757
1.12757
1.12758
1.12758
1.12758
1.12758
1.12758
1.12759
1.12759
1.12759
1.12759
1.12759
1.12759
1.12759
1.12759
1.12759
1.12759
1.12759
1.12759
1.12759
1.12759
1.12759
1.12759
1.12759
1.12759
1.12759
1.12759
1.12759
1.12759
1.12759
1.12759
1.12759
1.12759
1.12759
1.12759
1.12759
1.12759
1.12759
1.03283
1.07964
1.10714
1.12263
1.13145
1.13661
1.13973
1.14166
1.14288
1.14367
1.14418
1.14453
1.14476
1.14492
1.14503
1.14511
1.14516
1.1452
1.14522
1.14524
1.14526
1.14527
1.14527
1.14528
1.14528
1.14528
1.14529
1.14529
1.14529
1.14529
1.14529
1.14529
1.14529
1.14529
1.14529
1.14529
1.14529
1.14529
1.14529
1.14529
1.14529
1.14529
1.14529
1.14529
1.14529
1.14529
1.14529
1.14529
1.14529
1.14529
1.14529
1.14529
1.14529
1.14529
1.14529
1.14529
1.14529
1.14529
1.14529
1.14529
1.04631
1.10247
1.13122
1.14596
1.15386
1.15831
1.16092
1.16252
1.16351
1.16415
1.16457
1.16485
1.16503
1.16516
1.16524
1.1653
1.16535
1.16537
1.1654
1.16541
1.16542
1.16543
1.16543
1.16544
1.16544
1.16544
1.16544
1.16545
1.16545
1.16545
1.16545
1.16545
1.16545
1.16545
1.16545
1.16545
1.16545
1.16545
1.16545
1.16545
1.16545
1.16545
1.16545
1.16545
1.16545
1.16545
1.16545
1.16545
1.16545
1.16545
1.16545
1.16545
1.16545
1.16545
1.16545
1.16545
1.16545
1.16545
1.16545
1.16545
1.0691
1.13344
1.16079
1.17334
1.17966
1.18309
1.18506
1.18625
1.18699
1.18745
1.18776
1.18796
1.18809
1.18818
1.18824
1.18829
1.18832
1.18834
1.18835
1.18836
1.18837
1.18838
1.18838
1.18838
1.18839
1.18839
1.18839
1.18839
1.18839
1.18839
1.18839
1.18839
1.18839
1.18839
1.18839
1.18839
1.18839
1.18839
1.18839
1.18839
1.18839
1.18839
1.18839
1.18839
1.18839
1.18839
1.18839
1.18839
1.18839
1.18839
1.18839
1.18839
1.18839
1.18839
1.18839
1.18839
1.18839
1.18839
1.18839
1.18839
1.11033
1.17529
1.19653
1.20509
1.20914
1.21128
1.2125
1.21322
1.21366
1.21394
1.21412
1.21424
1.21432
1.21438
1.21441
1.21444
1.21446
1.21447
1.21448
1.21448
1.21449
1.21449
1.21449
1.21449
1.2145
1.2145
1.2145
1.2145
1.2145
1.2145
1.2145
1.2145
1.2145
1.2145
1.2145
1.2145
1.2145
1.2145
1.2145
1.2145
1.2145
1.2145
1.2145
1.2145
1.2145
1.2145
1.2145
1.2145
1.2145
1.2145
1.2145
1.2145
1.2145
1.2145
1.2145
1.2145
1.2145
1.2145
1.2145
1.2145
1.22513
1.26709
1.27563
1.27856
1.27988
1.28057
1.28095
1.28118
1.28132
1.2814
1.28146
1.2815
1.28152
1.28154
1.28155
1.28156
1.28157
1.28157
1.28157
1.28157
1.28158
1.28158
1.28158
1.28158
1.28158
1.28158
1.28158
1.28158
1.28158
1.28158
1.28158
1.28158
1.28158
1.28158
1.28158
1.28158
1.28158
1.28158
1.28158
1.28158
1.28158
1.28158
1.28158
1.28158
1.28158
1.28158
1.28158
1.28158
1.28158
1.28158
1.28158
1.28158
1.28158
1.28158
1.28158
1.28158
1.28158
1.28158
1.28158
1.28158
)
;

boundaryField
{
    top
    {
        type            zeroGradient;
    }
    inlet
    {
        type            fixedValue;
        value           uniform 1;
    }
    outlet
    {
        type            zeroGradient;
    }
    bottom
    {
        type            symmetryPlane;
    }
    frontAndBack
    {
        type            empty;
    }
}


// ************************************************************************* //
