/*--------------------------------*- C++ -*----------------------------------*\
| =========                 |                                                 |
| \\      /  F ield         | OpenFOAM: The Open Source CFD Toolbox           |
|  \\    /   O peration     | Version:  2412                                  |
|   \\  /    A nd           | Website:  www.openfoam.com                      |
|    \\/     M anipulation  |                                                 |
\*---------------------------------------------------------------------------*/
FoamFile
{
    version     2.0;
    format      ascii;
    arch        "LSB;label=32;scalar=64";
    class       volScalarField;
    location    "0.0025";
    object      p;
}
// * * * * * * * * * * * * * * * * * * * * * * * * * * * * * * * * * * * * * //

dimensions      [1 -1 -2 0 0 0 0];

internalField   nonuniform List<scalar> 
1800
(
1.00191
1.0057
1.00937
1.01287
1.01614
1.01914
1.02186
1.02429
1.02642
1.02828
1.02989
1.03126
1.03242
1.0334
1.03423
1.03492
1.03549
1.03596
1.03635
1.03668
1.03694
1.03716
1.03734
1.03748
1.0376
1.0377
1.03778
1.03785
1.0379
1.03794
1.03798
1.038
1.03803
1.03805
1.03806
1.03807
1.03808
1.03809
1.0381
1.0381
1.03811
1.03811
1.03812
1.03812
1.03812
1.03812
1.03812
1.03812
1.03812
1.03813
1.03813
1.03813
1.03813
1.03813
1.03813
1.03813
1.03813
1.03813
1.03813
1.03813
1.00194
1.00577
1.00948
1.01302
1.01632
1.01936
1.0221
1.02454
1.02669
1.02856
1.03017
1.03154
1.03271
1.0337
1.03452
1.03521
1.03578
1.03625
1.03665
1.03697
1.03723
1.03745
1.03763
1.03777
1.03789
1.03799
1.03807
1.03813
1.03819
1.03823
1.03826
1.03829
1.03832
1.03834
1.03835
1.03836
1.03837
1.03838
1.03839
1.03839
1.0384
1.0384
1.0384
1.03841
1.03841
1.03841
1.03841
1.03841
1.03841
1.03841
1.03841
1.03842
1.03842
1.03842
1.03842
1.03842
1.03842
1.03842
1.03842
1.03842
1.00198
1.00591
1.00971
1.01333
1.0167
1.01979
1.02257
1.02505
1.02722
1.02911
1.03073
1.03212
1.03329
1.03428
1.0351
1.03579
1.03637
1.03684
1.03723
1.03755
1.03782
1.03803
1.03821
1.03836
1.03847
1.03857
1.03865
1.03871
1.03877
1.03881
1.03884
1.03887
1.0389
1.03891
1.03893
1.03894
1.03895
1.03896
1.03897
1.03897
1.03898
1.03898
1.03898
1.03899
1.03899
1.03899
1.03899
1.03899
1.03899
1.03899
1.03899
1.03899
1.03899
1.03899
1.03899
1.039
1.039
1.039
1.039
1.039
1.00206
1.00612
1.01006
1.01379
1.01726
1.02044
1.02329
1.02582
1.02803
1.02994
1.03159
1.03298
1.03417
1.03516
1.03599
1.03668
1.03725
1.03772
1.03811
1.03843
1.0387
1.03891
1.03909
1.03923
1.03935
1.03945
1.03953
1.03959
1.03964
1.03968
1.03972
1.03975
1.03977
1.03979
1.0398
1.03982
1.03983
1.03983
1.03984
1.03985
1.03985
1.03985
1.03986
1.03986
1.03986
1.03986
1.03986
1.03986
1.03987
1.03987
1.03987
1.03987
1.03987
1.03987
1.03987
1.03987
1.03987
1.03987
1.03987
1.03987
1.00215
1.00641
1.01053
1.01442
1.01803
1.02132
1.02426
1.02685
1.02912
1.03107
1.03274
1.03415
1.03534
1.03634
1.03718
1.03787
1.03844
1.03891
1.0393
1.03962
1.03988
1.0401
1.04027
1.04041
1.04053
1.04063
1.0407
1.04077
1.04082
1.04086
1.0409
1.04092
1.04095
1.04096
1.04098
1.04099
1.041
1.04101
1.04102
1.04102
1.04103
1.04103
1.04103
1.04103
1.04104
1.04104
1.04104
1.04104
1.04104
1.04104
1.04104
1.04104
1.04104
1.04104
1.04104
1.04104
1.04104
1.04104
1.04104
1.04104
1.00228
1.00679
1.01113
1.01523
1.01901
1.02244
1.02549
1.02818
1.0305
1.0325
1.0342
1.03563
1.03684
1.03784
1.03868
1.03937
1.03994
1.04041
1.0408
1.04112
1.04138
1.04159
1.04177
1.04191
1.04202
1.04212
1.04219
1.04226
1.04231
1.04235
1.04238
1.04241
1.04243
1.04245
1.04247
1.04248
1.04249
1.0425
1.0425
1.04251
1.04251
1.04251
1.04252
1.04252
1.04252
1.04252
1.04252
1.04253
1.04253
1.04253
1.04253
1.04253
1.04253
1.04253
1.04253
1.04253
1.04253
1.04253
1.04253
1.04253
1.00244
1.00725
1.01188
1.01623
1.02022
1.02382
1.02701
1.02979
1.03219
1.03424
1.03598
1.03744
1.03865
1.03967
1.04051
1.0412
1.04177
1.04224
1.04263
1.04294
1.0432
1.04341
1.04358
1.04372
1.04384
1.04393
1.04401
1.04407
1.04412
1.04416
1.04419
1.04422
1.04424
1.04426
1.04427
1.04429
1.0443
1.0443
1.04431
1.04431
1.04432
1.04432
1.04432
1.04433
1.04433
1.04433
1.04433
1.04433
1.04433
1.04433
1.04433
1.04434
1.04434
1.04434
1.04434
1.04434
1.04434
1.04434
1.04434
1.04434
1.00263
1.00781
1.01278
1.01743
1.02168
1.02548
1.02883
1.03173
1.03421
1.03632
1.0381
1.03958
1.04081
1.04183
1.04268
1.04337
1.04394
1.04441
1.04479
1.0451
1.04536
1.04557
1.04574
1.04588
1.04599
1.04608
1.04616
1.04622
1.04627
1.04631
1.04634
1.04636
1.04639
1.0464
1.04642
1.04643
1.04644
1.04645
1.04645
1.04646
1.04646
1.04646
1.04647
1.04647
1.04647
1.04647
1.04647
1.04648
1.04648
1.04648
1.04648
1.04648
1.04648
1.04648
1.04648
1.04648
1.04648
1.04648
1.04648
1.04648
1.00286
1.00848
1.01386
1.01886
1.02341
1.02745
1.03097
1.034
1.03658
1.03875
1.04057
1.04208
1.04333
1.04436
1.04521
1.0459
1.04647
1.04693
1.04731
1.04762
1.04787
1.04808
1.04825
1.04838
1.04849
1.04858
1.04866
1.04872
1.04876
1.0488
1.04883
1.04886
1.04888
1.0489
1.04891
1.04892
1.04893
1.04894
1.04895
1.04895
1.04896
1.04896
1.04896
1.04896
1.04897
1.04897
1.04897
1.04897
1.04897
1.04897
1.04897
1.04897
1.04897
1.04897
1.04897
1.04897
1.04897
1.04897
1.04897
1.04897
1.00313
1.00927
1.01513
1.02055
1.02543
1.02974
1.03346
1.03664
1.03932
1.04157
1.04343
1.04496
1.04623
1.04726
1.04811
1.0488
1.04937
1.04983
1.05021
1.05051
1.05076
1.05096
1.05113
1.05126
1.05137
1.05146
1.05153
1.05159
1.05163
1.05167
1.0517
1.05173
1.05175
1.05177
1.05178
1.05179
1.0518
1.05181
1.05181
1.05182
1.05182
1.05182
1.05183
1.05183
1.05183
1.05183
1.05183
1.05183
1.05183
1.05183
1.05184
1.05184
1.05184
1.05184
1.05184
1.05184
1.05184
1.05184
1.05184
1.05184
1.00344
1.01021
1.01662
1.02252
1.02779
1.03239
1.03634
1.03968
1.04247
1.04478
1.04669
1.04825
1.04953
1.05057
1.05142
1.05211
1.05267
1.05313
1.0535
1.0538
1.05404
1.05424
1.0544
1.05453
1.05464
1.05472
1.05479
1.05485
1.05489
1.05493
1.05496
1.05499
1.05501
1.05502
1.05504
1.05505
1.05506
1.05506
1.05507
1.05507
1.05508
1.05508
1.05508
1.05508
1.05509
1.05509
1.05509
1.05509
1.05509
1.05509
1.05509
1.05509
1.05509
1.05509
1.05509
1.05509
1.05509
1.05509
1.05509
1.05509
1.00382
1.0113
1.01836
1.0248
1.03051
1.03545
1.03964
1.04314
1.04605
1.04843
1.05038
1.05197
1.05326
1.05431
1.05515
1.05584
1.05639
1.05684
1.05721
1.0575
1.05774
1.05794
1.05809
1.05822
1.05832
1.05841
1.05847
1.05853
1.05857
1.05861
1.05864
1.05866
1.05868
1.0587
1.05871
1.05872
1.05873
1.05874
1.05874
1.05875
1.05875
1.05875
1.05876
1.05876
1.05876
1.05876
1.05876
1.05876
1.05876
1.05876
1.05876
1.05876
1.05877
1.05877
1.05877
1.05877
1.05877
1.05877
1.05877
1.05877
1.00425
1.01258
1.02039
1.02745
1.03365
1.03895
1.04339
1.04708
1.0501
1.05255
1.05454
1.05615
1.05745
1.0585
1.05934
1.06002
1.06057
1.06101
1.06137
1.06166
1.06189
1.06208
1.06223
1.06236
1.06246
1.06254
1.0626
1.06265
1.0627
1.06273
1.06276
1.06278
1.0628
1.06282
1.06283
1.06284
1.06285
1.06285
1.06286
1.06286
1.06287
1.06287
1.06287
1.06288
1.06288
1.06288
1.06288
1.06288
1.06288
1.06288
1.06288
1.06288
1.06288
1.06288
1.06288
1.06288
1.06288
1.06288
1.06288
1.06288
1.00477
1.01407
1.02275
1.03052
1.03725
1.04294
1.04766
1.05153
1.05466
1.05718
1.05921
1.06084
1.06214
1.06318
1.06402
1.06469
1.06523
1.06566
1.06601
1.06629
1.06652
1.0667
1.06685
1.06697
1.06706
1.06714
1.06721
1.06726
1.0673
1.06733
1.06736
1.06738
1.0674
1.06741
1.06743
1.06743
1.06744
1.06745
1.06745
1.06746
1.06746
1.06746
1.06747
1.06747
1.06747
1.06747
1.06747
1.06747
1.06747
1.06747
1.06747
1.06747
1.06748
1.06748
1.06748
1.06748
1.06748
1.06748
1.06748
1.06748
1.00537
1.01582
1.02549
1.03406
1.04139
1.0475
1.0525
1.05654
1.05978
1.06236
1.06442
1.06606
1.06736
1.06839
1.06922
1.06988
1.07041
1.07083
1.07117
1.07144
1.07166
1.07183
1.07198
1.07209
1.07218
1.07226
1.07232
1.07237
1.07241
1.07244
1.07247
1.07249
1.07251
1.07252
1.07253
1.07254
1.07255
1.07255
1.07256
1.07256
1.07257
1.07257
1.07257
1.07257
1.07257
1.07257
1.07258
1.07258
1.07258
1.07258
1.07258
1.07258
1.07258
1.07258
1.07258
1.07258
1.07258
1.07258
1.07258
1.07258
1.00608
1.01788
1.0287
1.03815
1.04612
1.05267
1.05796
1.06217
1.06551
1.06814
1.07022
1.07185
1.07315
1.07417
1.07498
1.07563
1.07614
1.07655
1.07688
1.07714
1.07735
1.07752
1.07766
1.07777
1.07786
1.07793
1.07799
1.07803
1.07807
1.0781
1.07813
1.07815
1.07816
1.07817
1.07819
1.07819
1.0782
1.07821
1.07821
1.07822
1.07822
1.07822
1.07822
1.07822
1.07823
1.07823
1.07823
1.07823
1.07823
1.07823
1.07823
1.07823
1.07823
1.07823
1.07823
1.07823
1.07823
1.07823
1.07823
1.07823
1.00693
1.02031
1.03244
1.04289
1.05155
1.05855
1.06411
1.06848
1.0719
1.07457
1.07665
1.07828
1.07956
1.08056
1.08135
1.08198
1.08248
1.08287
1.08319
1.08344
1.08364
1.0838
1.08393
1.08404
1.08412
1.08419
1.08424
1.08429
1.08432
1.08435
1.08438
1.08439
1.08441
1.08442
1.08443
1.08444
1.08445
1.08445
1.08446
1.08446
1.08446
1.08447
1.08447
1.08447
1.08447
1.08447
1.08447
1.08447
1.08447
1.08447
1.08447
1.08447
1.08447
1.08447
1.08448
1.08448
1.08448
1.08448
1.08448
1.08448
1.00794
1.02319
1.03683
1.04837
1.05776
1.06521
1.07103
1.07553
1.07901
1.08169
1.08377
1.08538
1.08663
1.08761
1.08838
1.08898
1.08946
1.08984
1.09014
1.09038
1.09057
1.09072
1.09085
1.09094
1.09102
1.09109
1.09114
1.09118
1.09121
1.09124
1.09126
1.09128
1.0913
1.09131
1.09132
1.09133
1.09133
1.09134
1.09134
1.09134
1.09135
1.09135
1.09135
1.09135
1.09135
1.09135
1.09136
1.09136
1.09136
1.09136
1.09136
1.09136
1.09136
1.09136
1.09136
1.09136
1.09136
1.09136
1.09136
1.09136
1.00915
1.02662
1.042
1.05473
1.06487
1.07275
1.0788
1.0834
1.08691
1.08959
1.09163
1.09321
1.09443
1.09537
1.09611
1.09669
1.09714
1.0975
1.09779
1.09801
1.09819
1.09834
1.09845
1.09855
1.09862
1.09868
1.09873
1.09877
1.0988
1.09882
1.09884
1.09886
1.09887
1.09889
1.09889
1.0989
1.09891
1.09891
1.09892
1.09892
1.09892
1.09892
1.09893
1.09893
1.09893
1.09893
1.09893
1.09893
1.09893
1.09893
1.09893
1.09893
1.09893
1.09893
1.09893
1.09893
1.09893
1.09893
1.09893
1.09893
1.01064
1.03076
1.04811
1.06213
1.07301
1.08128
1.0875
1.09217
1.09567
1.09831
1.10031
1.10183
1.103
1.10391
1.10461
1.10515
1.10558
1.10592
1.10619
1.1064
1.10657
1.1067
1.10681
1.1069
1.10697
1.10702
1.10707
1.1071
1.10713
1.10715
1.10717
1.10719
1.1072
1.10721
1.10722
1.10723
1.10723
1.10724
1.10724
1.10724
1.10725
1.10725
1.10725
1.10725
1.10725
1.10725
1.10725
1.10725
1.10725
1.10725
1.10725
1.10725
1.10725
1.10725
1.10725
1.10725
1.10726
1.10726
1.10726
1.10726
1.01248
1.0358
1.05538
1.07074
1.08233
1.09092
1.09724
1.1019
1.10535
1.10792
1.10985
1.11131
1.11242
1.11327
1.11393
1.11444
1.11484
1.11516
1.11541
1.1156
1.11576
1.11588
1.11598
1.11606
1.11612
1.11618
1.11622
1.11625
1.11628
1.1163
1.11632
1.11633
1.11634
1.11635
1.11636
1.11636
1.11637
1.11637
1.11638
1.11638
1.11638
1.11638
1.11638
1.11638
1.11639
1.11639
1.11639
1.11639
1.11639
1.11639
1.11639
1.11639
1.11639
1.11639
1.11639
1.11639
1.11639
1.11639
1.11639
1.11639
1.01481
1.042
1.06408
1.08078
1.09299
1.10178
1.10812
1.1127
1.11604
1.1185
1.12033
1.12171
1.12275
1.12354
1.12416
1.12463
1.125
1.12528
1.12551
1.12569
1.12583
1.12594
1.12603
1.12611
1.12616
1.12621
1.12625
1.12628
1.1263
1.12632
1.12634
1.12635
1.12636
1.12637
1.12637
1.12638
1.12638
1.12639
1.12639
1.12639
1.1264
1.1264
1.1264
1.1264
1.1264
1.1264
1.1264
1.1264
1.1264
1.1264
1.1264
1.1264
1.1264
1.1264
1.1264
1.1264
1.1264
1.1264
1.1264
1.1264
1.01783
1.04973
1.07454
1.09251
1.10516
1.114
1.12022
1.12464
1.12782
1.13013
1.13184
1.13311
1.13407
1.13479
1.13535
1.13578
1.13611
1.13637
1.13658
1.13674
1.13686
1.13697
1.13705
1.13711
1.13716
1.1372
1.13724
1.13726
1.13728
1.1373
1.13732
1.13733
1.13734
1.13734
1.13735
1.13735
1.13736
1.13736
1.13736
1.13737
1.13737
1.13737
1.13737
1.13737
1.13737
1.13737
1.13737
1.13737
1.13737
1.13737
1.13737
1.13737
1.13737
1.13737
1.13737
1.13737
1.13737
1.13738
1.13738
1.13738
1.02188
1.05953
1.08719
1.1062
1.11903
1.12771
1.13367
1.13782
1.14077
1.1429
1.14445
1.1456
1.14645
1.1471
1.1476
1.14798
1.14828
1.14851
1.14869
1.14883
1.14894
1.14903
1.1491
1.14915
1.1492
1.14924
1.14926
1.14929
1.14931
1.14932
1.14933
1.14934
1.14935
1.14936
1.14936
1.14937
1.14937
1.14937
1.14938
1.14938
1.14938
1.14938
1.14938
1.14938
1.14938
1.14938
1.14938
1.14938
1.14938
1.14938
1.14938
1.14939
1.14939
1.14939
1.14939
1.14939
1.14939
1.14939
1.14939
1.14939
1.02755
1.07216
1.10256
1.12217
1.13478
1.14303
1.14856
1.15234
1.15499
1.15687
1.15824
1.15925
1.16
1.16056
1.16099
1.16132
1.16158
1.16177
1.16193
1.16205
1.16215
1.16222
1.16228
1.16233
1.16237
1.1624
1.16242
1.16244
1.16246
1.16247
1.16248
1.16249
1.1625
1.1625
1.16251
1.16251
1.16251
1.16252
1.16252
1.16252
1.16252
1.16252
1.16252
1.16252
1.16252
1.16252
1.16253
1.16253
1.16253
1.16253
1.16253
1.16253
1.16253
1.16253
1.16253
1.16253
1.16253
1.16253
1.16253
1.16253
1.03592
1.08873
1.12128
1.14074
1.1526
1.16009
1.16498
1.16828
1.17055
1.17216
1.17332
1.17417
1.1748
1.17527
1.17563
1.1759
1.17611
1.17628
1.17641
1.17651
1.17658
1.17665
1.1767
1.17674
1.17677
1.17679
1.17681
1.17683
1.17684
1.17685
1.17686
1.17687
1.17687
1.17688
1.17688
1.17689
1.17689
1.17689
1.17689
1.17689
1.17689
1.17689
1.1769
1.1769
1.1769
1.1769
1.1769
1.1769
1.1769
1.1769
1.1769
1.1769
1.1769
1.1769
1.1769
1.1769
1.1769
1.1769
1.1769
1.1769
1.04911
1.1108
1.14404
1.16218
1.17262
1.17898
1.18303
1.18573
1.18757
1.18886
1.18979
1.19046
1.19096
1.19133
1.19162
1.19183
1.192
1.19212
1.19222
1.1923
1.19236
1.19241
1.19245
1.19248
1.19251
1.19253
1.19254
1.19256
1.19257
1.19257
1.19258
1.19259
1.19259
1.19259
1.1926
1.1926
1.1926
1.1926
1.1926
1.1926
1.1926
1.19261
1.19261
1.19261
1.19261
1.19261
1.19261
1.19261
1.19261
1.19261
1.19261
1.19261
1.19261
1.19261
1.19261
1.19261
1.19261
1.19261
1.19261
1.19261
1.07138
1.14048
1.17149
1.18668
1.19491
1.19976
1.2028
1.20479
1.20614
1.20708
1.20775
1.20824
1.2086
1.20886
1.20907
1.20922
1.20934
1.20943
1.2095
1.20956
1.2096
1.20964
1.20966
1.20969
1.2097
1.20972
1.20973
1.20974
1.20975
1.20975
1.20976
1.20976
1.20976
1.20977
1.20977
1.20977
1.20977
1.20977
1.20977
1.20977
1.20977
1.20977
1.20977
1.20977
1.20978
1.20978
1.20978
1.20978
1.20978
1.20978
1.20978
1.20978
1.20978
1.20978
1.20978
1.20978
1.20978
1.20978
1.20978
1.20978
1.11175
1.18031
1.204
1.21424
1.21949
1.2225
1.22435
1.22555
1.22637
1.22693
1.22733
1.22762
1.22783
1.22799
1.22811
1.2282
1.22827
1.22833
1.22837
1.2284
1.22843
1.22845
1.22847
1.22848
1.22849
1.2285
1.2285
1.22851
1.22851
1.22852
1.22852
1.22852
1.22852
1.22853
1.22853
1.22853
1.22853
1.22853
1.22853
1.22853
1.22853
1.22853
1.22853
1.22853
1.22853
1.22853
1.22853
1.22853
1.22853
1.22853
1.22853
1.22853
1.22853
1.22853
1.22853
1.22853
1.22853
1.22853
1.22853
1.22853
1.22526
1.26901
1.27847
1.28197
1.28368
1.28465
1.28524
1.28562
1.28588
1.28606
1.28618
1.28628
1.28634
1.28639
1.28643
1.28646
1.28648
1.2865
1.28651
1.28652
1.28653
1.28654
1.28654
1.28655
1.28655
1.28655
1.28655
1.28656
1.28656
1.28656
1.28656
1.28656
1.28656
1.28656
1.28656
1.28656
1.28656
1.28656
1.28656
1.28656
1.28656
1.28656
1.28656
1.28656
1.28656
1.28656
1.28656
1.28656
1.28656
1.28656
1.28656
1.28656
1.28656
1.28656
1.28656
1.28656
1.28656
1.28656
1.28656
1.28656
)
;

boundaryField
{
    top
    {
        type            zeroGradient;
    }
    inlet
    {
        type            fixedValue;
        value           uniform 1;
    }
    outlet
    {
        type            zeroGradient;
    }
    bottom
    {
        type            symmetryPlane;
    }
    frontAndBack
    {
        type            empty;
    }
}


// ************************************************************************* //
