/*--------------------------------*- C++ -*----------------------------------*\
| =========                 |                                                 |
| \\      /  F ield         | OpenFOAM: The Open Source CFD Toolbox           |
|  \\    /   O peration     | Version:  2412                                  |
|   \\  /    A nd           | Website:  www.openfoam.com                      |
|    \\/     M anipulation  |                                                 |
\*---------------------------------------------------------------------------*/
FoamFile
{
    version     2.0;
    format      ascii;
    arch        "LSB;label=32;scalar=64";
    class       volScalarField;
    location    "0.0025";
    object      TTR;
}
// * * * * * * * * * * * * * * * * * * * * * * * * * * * * * * * * * * * * * //

dimensions      [0 0 0 1 0 0 0];

internalField   nonuniform List<scalar> 
1800
(
1000.61
1001.82
1002.98
1004.07
1005.06
1005.95
1006.73
1007.4
1007.97
1008.44
1008.83
1009.14
1009.4
1009.6
1009.76
1009.88
1009.98
1010.06
1010.11
1010.16
1010.19
1010.22
1010.24
1010.25
1010.27
1010.27
1010.28
1010.29
1010.29
1010.29
1010.3
1010.3
1010.3
1010.3
1010.3
1010.3
1010.3
1010.3
1010.3
1010.3
1010.3
1010.3
1010.3
1010.3
1010.3
1010.3
1010.3
1010.3
1010.3
1010.3
1010.3
1010.3
1010.3
1010.3
1010.3
1010.3
1010.3
1010.3
1010.3
1010.3
1000.63
1001.86
1003.05
1004.16
1005.17
1006.08
1006.87
1007.55
1008.13
1008.61
1009
1009.32
1009.57
1009.77
1009.93
1010.06
1010.16
1010.23
1010.29
1010.34
1010.37
1010.4
1010.42
1010.43
1010.44
1010.45
1010.46
1010.46
1010.47
1010.47
1010.47
1010.47
1010.48
1010.48
1010.48
1010.48
1010.48
1010.48
1010.48
1010.48
1010.48
1010.48
1010.48
1010.48
1010.48
1010.48
1010.48
1010.48
1010.48
1010.48
1010.48
1010.48
1010.48
1010.48
1010.48
1010.48
1010.48
1010.48
1010.48
1010.48
1000.66
1001.95
1003.19
1004.35
1005.4
1006.34
1007.16
1007.86
1008.45
1008.94
1009.34
1009.66
1009.92
1010.13
1010.29
1010.42
1010.52
1010.59
1010.65
1010.7
1010.73
1010.76
1010.78
1010.79
1010.8
1010.81
1010.82
1010.82
1010.83
1010.83
1010.83
1010.83
1010.83
1010.84
1010.84
1010.84
1010.84
1010.84
1010.84
1010.84
1010.84
1010.84
1010.84
1010.84
1010.84
1010.84
1010.84
1010.84
1010.84
1010.84
1010.84
1010.84
1010.84
1010.84
1010.84
1010.84
1010.84
1010.84
1010.84
1010.84
1000.7
1002.08
1003.4
1004.63
1005.75
1006.74
1007.6
1008.33
1008.95
1009.45
1009.86
1010.19
1010.46
1010.67
1010.83
1010.96
1011.06
1011.14
1011.2
1011.24
1011.28
1011.3
1011.32
1011.34
1011.35
1011.36
1011.36
1011.37
1011.37
1011.38
1011.38
1011.38
1011.38
1011.38
1011.38
1011.38
1011.38
1011.38
1011.38
1011.38
1011.38
1011.38
1011.38
1011.38
1011.38
1011.38
1011.38
1011.38
1011.38
1011.38
1011.38
1011.38
1011.38
1011.38
1011.38
1011.38
1011.38
1011.38
1011.38
1011.38
1000.76
1002.26
1003.7
1005.03
1006.23
1007.29
1008.2
1008.98
1009.62
1010.15
1010.57
1010.92
1011.19
1011.4
1011.57
1011.7
1011.8
1011.88
1011.94
1011.98
1012.02
1012.04
1012.06
1012.08
1012.09
1012.1
1012.11
1012.11
1012.12
1012.12
1012.12
1012.12
1012.12
1012.12
1012.12
1012.12
1012.13
1012.13
1012.13
1012.13
1012.13
1012.13
1012.13
1012.13
1012.13
1012.13
1012.13
1012.13
1012.13
1012.13
1012.13
1012.13
1012.13
1012.13
1012.13
1012.13
1012.13
1012.13
1012.13
1012.13
1000.84
1002.5
1004.08
1005.54
1006.85
1007.99
1008.98
1009.8
1010.49
1011.04
1011.49
1011.84
1012.13
1012.35
1012.52
1012.65
1012.75
1012.83
1012.89
1012.93
1012.97
1013
1013.02
1013.03
1013.04
1013.05
1013.06
1013.06
1013.07
1013.07
1013.07
1013.07
1013.07
1013.08
1013.08
1013.08
1013.08
1013.08
1013.08
1013.08
1013.08
1013.08
1013.08
1013.08
1013.08
1013.08
1013.08
1013.08
1013.08
1013.08
1013.08
1013.08
1013.08
1013.08
1013.08
1013.08
1013.08
1013.08
1013.08
1013.08
1000.94
1002.8
1004.56
1006.18
1007.62
1008.88
1009.95
1010.84
1011.56
1012.15
1012.62
1012.99
1013.29
1013.51
1013.69
1013.82
1013.93
1014.01
1014.07
1014.11
1014.15
1014.17
1014.19
1014.21
1014.22
1014.23
1014.24
1014.24
1014.24
1014.25
1014.25
1014.25
1014.25
1014.25
1014.25
1014.25
1014.25
1014.25
1014.25
1014.25
1014.25
1014.25
1014.25
1014.25
1014.25
1014.25
1014.25
1014.25
1014.25
1014.25
1014.25
1014.25
1014.25
1014.25
1014.25
1014.25
1014.25
1014.25
1014.25
1014.25
1001.07
1003.17
1005.15
1006.97
1008.57
1009.96
1011.13
1012.09
1012.88
1013.5
1014
1014.39
1014.69
1014.92
1015.1
1015.24
1015.35
1015.43
1015.49
1015.54
1015.57
1015.6
1015.62
1015.63
1015.64
1015.65
1015.66
1015.66
1015.67
1015.67
1015.67
1015.67
1015.67
1015.67
1015.68
1015.68
1015.68
1015.68
1015.68
1015.68
1015.68
1015.68
1015.68
1015.68
1015.68
1015.68
1015.68
1015.68
1015.68
1015.68
1015.68
1015.68
1015.68
1015.68
1015.68
1015.68
1015.68
1015.68
1015.68
1015.68
1001.22
1003.62
1005.87
1007.92
1009.73
1011.27
1012.55
1013.6
1014.44
1015.11
1015.64
1016.05
1016.36
1016.61
1016.79
1016.93
1017.04
1017.12
1017.18
1017.23
1017.26
1017.29
1017.31
1017.33
1017.34
1017.35
1017.35
1017.36
1017.36
1017.36
1017.36
1017.37
1017.37
1017.37
1017.37
1017.37
1017.37
1017.37
1017.37
1017.37
1017.37
1017.37
1017.37
1017.37
1017.37
1017.37
1017.37
1017.37
1017.37
1017.37
1017.37
1017.37
1017.37
1017.37
1017.37
1017.37
1017.37
1017.37
1017.37
1017.37
1001.41
1004.16
1006.75
1009.08
1011.11
1012.83
1014.25
1015.39
1016.31
1017.02
1017.58
1018.01
1018.34
1018.59
1018.78
1018.92
1019.03
1019.11
1019.18
1019.22
1019.26
1019.28
1019.3
1019.32
1019.33
1019.34
1019.34
1019.35
1019.35
1019.35
1019.36
1019.36
1019.36
1019.36
1019.36
1019.36
1019.36
1019.36
1019.36
1019.36
1019.36
1019.36
1019.36
1019.36
1019.36
1019.36
1019.36
1019.36
1019.36
1019.36
1019.36
1019.36
1019.36
1019.36
1019.36
1019.36
1019.36
1019.36
1019.36
1019.36
1001.63
1004.82
1007.8
1010.46
1012.76
1014.68
1016.25
1017.5
1018.49
1019.26
1019.85
1020.3
1020.64
1020.9
1021.1
1021.25
1021.36
1021.44
1021.5
1021.55
1021.58
1021.61
1021.63
1021.64
1021.66
1021.66
1021.67
1021.67
1021.68
1021.68
1021.68
1021.68
1021.68
1021.69
1021.69
1021.69
1021.69
1021.69
1021.69
1021.69
1021.69
1021.69
1021.69
1021.69
1021.69
1021.69
1021.69
1021.69
1021.69
1021.69
1021.69
1021.69
1021.69
1021.69
1021.69
1021.69
1021.69
1021.69
1021.69
1021.69
1001.9
1005.61
1009.06
1012.11
1014.71
1016.87
1018.61
1019.98
1021.05
1021.87
1022.5
1022.97
1023.33
1023.6
1023.8
1023.95
1024.06
1024.14
1024.2
1024.25
1024.28
1024.31
1024.33
1024.34
1024.35
1024.36
1024.37
1024.37
1024.38
1024.38
1024.38
1024.38
1024.38
1024.38
1024.38
1024.39
1024.39
1024.39
1024.39
1024.39
1024.39
1024.39
1024.39
1024.39
1024.39
1024.39
1024.39
1024.39
1024.39
1024.39
1024.39
1024.39
1024.39
1024.39
1024.39
1024.39
1024.39
1024.39
1024.39
1024.39
1002.23
1006.57
1010.56
1014.07
1017.03
1019.45
1021.37
1022.88
1024.03
1024.91
1025.57
1026.06
1026.43
1026.71
1026.91
1027.06
1027.18
1027.26
1027.32
1027.37
1027.4
1027.43
1027.45
1027.46
1027.47
1027.48
1027.49
1027.49
1027.49
1027.5
1027.5
1027.5
1027.5
1027.5
1027.5
1027.5
1027.5
1027.5
1027.5
1027.5
1027.5
1027.5
1027.5
1027.5
1027.5
1027.5
1027.5
1027.5
1027.5
1027.5
1027.5
1027.5
1027.5
1027.5
1027.5
1027.5
1027.5
1027.5
1027.5
1027.5
1002.62
1007.71
1012.36
1016.41
1019.77
1022.48
1024.61
1026.24
1027.49
1028.42
1029.12
1029.63
1030.01
1030.3
1030.5
1030.66
1030.77
1030.86
1030.92
1030.96
1031
1031.02
1031.04
1031.05
1031.07
1031.07
1031.08
1031.08
1031.09
1031.09
1031.09
1031.09
1031.09
1031.09
1031.09
1031.09
1031.09
1031.09
1031.09
1031.09
1031.1
1031.1
1031.1
1031.1
1031.1
1031.1
1031.1
1031.1
1031.1
1031.1
1031.1
1031.1
1031.1
1031.1
1031.1
1031.1
1031.1
1031.1
1031.1
1031.1
1003.1
1009.09
1014.53
1019.18
1023.01
1026.04
1028.38
1030.16
1031.49
1032.48
1033.21
1033.74
1034.13
1034.42
1034.63
1034.79
1034.9
1034.98
1035.05
1035.09
1035.12
1035.15
1035.17
1035.18
1035.19
1035.2
1035.2
1035.21
1035.21
1035.21
1035.22
1035.22
1035.22
1035.22
1035.22
1035.22
1035.22
1035.22
1035.22
1035.22
1035.22
1035.22
1035.22
1035.22
1035.22
1035.22
1035.22
1035.22
1035.22
1035.22
1035.22
1035.22
1035.22
1035.22
1035.22
1035.22
1035.22
1035.22
1035.22
1035.22
1003.68
1010.77
1017.12
1022.49
1026.82
1030.2
1032.77
1034.7
1036.12
1037.15
1037.91
1038.47
1038.87
1039.16
1039.37
1039.52
1039.64
1039.72
1039.78
1039.82
1039.86
1039.88
1039.9
1039.91
1039.92
1039.93
1039.93
1039.94
1039.94
1039.94
1039.94
1039.95
1039.95
1039.95
1039.95
1039.95
1039.95
1039.95
1039.95
1039.95
1039.95
1039.95
1039.95
1039.95
1039.95
1039.95
1039.95
1039.95
1039.95
1039.95
1039.95
1039.95
1039.95
1039.95
1039.95
1039.95
1039.95
1039.95
1039.95
1039.95
1004.39
1012.79
1020.24
1026.43
1031.33
1035.08
1037.89
1039.95
1041.45
1042.54
1043.32
1043.88
1044.29
1044.58
1044.8
1044.95
1045.06
1045.14
1045.2
1045.24
1045.27
1045.3
1045.31
1045.33
1045.34
1045.34
1045.35
1045.35
1045.35
1045.36
1045.36
1045.36
1045.36
1045.36
1045.36
1045.36
1045.36
1045.36
1045.36
1045.36
1045.36
1045.36
1045.36
1045.36
1045.36
1045.36
1045.36
1045.36
1045.36
1045.36
1045.36
1045.36
1045.36
1045.36
1045.36
1045.36
1045.36
1045.36
1045.36
1045.36
1005.26
1015.27
1024
1031.12
1036.64
1040.78
1043.82
1046.02
1047.59
1048.72
1049.52
1050.09
1050.5
1050.79
1051
1051.15
1051.26
1051.34
1051.4
1051.44
1051.47
1051.49
1051.51
1051.52
1051.53
1051.54
1051.54
1051.54
1051.55
1051.55
1051.55
1051.55
1051.55
1051.55
1051.55
1051.55
1051.55
1051.55
1051.55
1051.55
1051.55
1051.55
1051.55
1051.55
1051.55
1051.55
1051.55
1051.55
1051.55
1051.55
1051.55
1051.55
1051.55
1051.55
1051.55
1051.55
1051.55
1051.55
1051.55
1051.55
1006.34
1018.31
1028.56
1036.73
1042.91
1047.45
1050.71
1053.02
1054.66
1055.81
1056.62
1057.19
1057.6
1057.89
1058.09
1058.24
1058.35
1058.42
1058.48
1058.52
1058.55
1058.57
1058.58
1058.59
1058.6
1058.61
1058.61
1058.62
1058.62
1058.62
1058.62
1058.62
1058.62
1058.62
1058.63
1058.63
1058.63
1058.63
1058.63
1058.63
1058.63
1058.63
1058.63
1058.63
1058.63
1058.63
1058.63
1058.63
1058.63
1058.63
1058.63
1058.63
1058.63
1058.63
1058.63
1058.63
1058.63
1058.63
1058.63
1058.63
1007.69
1022.07
1034.1
1043.43
1050.3
1055.22
1058.68
1061.09
1062.77
1063.93
1064.75
1065.31
1065.71
1065.99
1066.19
1066.33
1066.44
1066.51
1066.56
1066.6
1066.63
1066.65
1066.66
1066.67
1066.68
1066.68
1066.69
1066.69
1066.69
1066.7
1066.7
1066.7
1066.7
1066.7
1066.7
1066.7
1066.7
1066.7
1066.7
1066.7
1066.7
1066.7
1066.7
1066.7
1066.7
1066.7
1066.7
1066.7
1066.7
1066.7
1066.7
1066.7
1066.7
1066.7
1066.7
1066.7
1066.7
1066.7
1066.7
1066.7
1009.41
1026.76
1040.87
1051.46
1059.02
1064.29
1067.9
1070.38
1072.07
1073.23
1074.03
1074.59
1074.97
1075.24
1075.43
1075.57
1075.67
1075.73
1075.78
1075.82
1075.84
1075.86
1075.88
1075.89
1075.89
1075.9
1075.9
1075.91
1075.91
1075.91
1075.91
1075.91
1075.91
1075.91
1075.91
1075.91
1075.91
1075.91
1075.91
1075.91
1075.91
1075.91
1075.91
1075.91
1075.91
1075.91
1075.91
1075.91
1075.91
1075.91
1075.91
1075.91
1075.91
1075.91
1075.91
1075.91
1075.91
1075.91
1075.91
1075.91
1011.64
1032.67
1049.17
1061.07
1069.29
1074.84
1078.56
1081.05
1082.73
1083.87
1084.64
1085.17
1085.54
1085.8
1085.97
1086.1
1086.19
1086.25
1086.3
1086.33
1086.36
1086.37
1086.39
1086.39
1086.4
1086.41
1086.41
1086.41
1086.41
1086.42
1086.42
1086.42
1086.42
1086.42
1086.42
1086.42
1086.42
1086.42
1086.42
1086.42
1086.42
1086.42
1086.42
1086.42
1086.42
1086.42
1086.42
1086.42
1086.42
1086.42
1086.42
1086.42
1086.42
1086.42
1086.42
1086.42
1086.42
1086.42
1086.42
1086.42
1014.58
1040.2
1059.38
1072.6
1081.36
1087.09
1090.83
1093.29
1094.92
1096.01
1096.74
1097.24
1097.59
1097.82
1097.99
1098.11
1098.19
1098.25
1098.29
1098.32
1098.34
1098.35
1098.36
1098.37
1098.38
1098.38
1098.39
1098.39
1098.39
1098.39
1098.39
1098.39
1098.39
1098.39
1098.39
1098.39
1098.39
1098.39
1098.39
1098.39
1098.39
1098.4
1098.4
1098.4
1098.4
1098.4
1098.4
1098.4
1098.4
1098.4
1098.4
1098.4
1098.4
1098.4
1098.4
1098.4
1098.4
1098.4
1098.4
1098.4
1018.6
1049.93
1072.02
1086.41
1095.54
1101.3
1104.96
1107.32
1108.85
1109.87
1110.55
1111
1111.32
1111.53
1111.68
1111.78
1111.86
1111.91
1111.95
1111.97
1111.99
1112.01
1112.02
1112.02
1112.03
1112.03
1112.03
1112.04
1112.04
1112.04
1112.04
1112.04
1112.04
1112.04
1112.04
1112.04
1112.04
1112.04
1112.04
1112.04
1112.04
1112.04
1112.04
1112.04
1112.04
1112.04
1112.04
1112.04
1112.04
1112.04
1112.04
1112.04
1112.04
1112.04
1112.04
1112.04
1112.04
1112.04
1112.04
1112.04
1024.31
1062.69
1087.69
1102.94
1112.12
1117.71
1121.17
1123.35
1124.75
1125.67
1126.27
1126.68
1126.96
1127.15
1127.28
1127.37
1127.43
1127.47
1127.51
1127.53
1127.54
1127.56
1127.57
1127.57
1127.58
1127.58
1127.58
1127.58
1127.58
1127.59
1127.59
1127.59
1127.59
1127.59
1127.59
1127.59
1127.59
1127.59
1127.59
1127.59
1127.59
1127.59
1127.59
1127.59
1127.59
1127.59
1127.59
1127.59
1127.59
1127.59
1127.59
1127.59
1127.59
1127.59
1127.59
1127.59
1127.59
1127.59
1127.59
1127.59
1032.83
1079.64
1107.14
1122.63
1131.45
1136.61
1139.73
1141.66
1142.88
1143.67
1144.18
1144.53
1144.76
1144.92
1145.03
1145.11
1145.16
1145.2
1145.22
1145.24
1145.26
1145.27
1145.27
1145.28
1145.28
1145.28
1145.29
1145.29
1145.29
1145.29
1145.29
1145.29
1145.29
1145.29
1145.29
1145.29
1145.29
1145.29
1145.29
1145.29
1145.29
1145.29
1145.29
1145.29
1145.29
1145.29
1145.29
1145.29
1145.29
1145.29
1145.29
1145.29
1145.29
1145.29
1145.29
1145.29
1145.29
1145.29
1145.29
1145.29
1046.31
1102.47
1131.22
1145.96
1153.86
1158.31
1160.92
1162.52
1163.51
1164.15
1164.57
1164.85
1165.03
1165.16
1165.24
1165.3
1165.35
1165.37
1165.4
1165.41
1165.42
1165.43
1165.43
1165.44
1165.44
1165.44
1165.44
1165.45
1165.45
1165.45
1165.45
1165.45
1165.45
1165.45
1165.45
1165.45
1165.45
1165.45
1165.45
1165.45
1165.45
1165.45
1165.45
1165.45
1165.45
1165.45
1165.45
1165.45
1165.45
1165.45
1165.45
1165.45
1165.45
1165.45
1165.45
1165.45
1165.45
1165.45
1165.45
1165.45
1069.1
1133.44
1160.79
1173.34
1179.66
1183.09
1185.06
1186.25
1186.99
1187.45
1187.76
1187.96
1188.09
1188.18
1188.24
1188.29
1188.32
1188.34
1188.35
1188.36
1188.37
1188.38
1188.38
1188.38
1188.39
1188.39
1188.39
1188.39
1188.39
1188.39
1188.39
1188.39
1188.39
1188.39
1188.39
1188.39
1188.39
1188.39
1188.39
1188.39
1188.39
1188.39
1188.39
1188.39
1188.39
1188.39
1188.39
1188.39
1188.39
1188.39
1188.39
1188.39
1188.39
1188.39
1188.39
1188.39
1188.39
1188.39
1188.39
1188.39
1110.33
1175.29
1196.53
1205.09
1209.14
1211.28
1212.5
1213.22
1213.66
1213.94
1214.12
1214.24
1214.32
1214.38
1214.41
1214.44
1214.46
1214.47
1214.48
1214.48
1214.49
1214.49
1214.49
1214.49
1214.5
1214.5
1214.5
1214.5
1214.5
1214.5
1214.5
1214.5
1214.5
1214.5
1214.5
1214.5
1214.5
1214.5
1214.5
1214.5
1214.5
1214.5
1214.5
1214.5
1214.5
1214.5
1214.5
1214.5
1214.5
1214.5
1214.5
1214.5
1214.5
1214.5
1214.5
1214.5
1214.5
1214.5
1214.5
1214.5
1189.25
1229.98
1238.27
1241.11
1242.39
1243.06
1243.43
1243.65
1243.79
1243.87
1243.93
1243.96
1243.99
1244.01
1244.02
1244.02
1244.03
1244.03
1244.04
1244.04
1244.04
1244.04
1244.04
1244.04
1244.04
1244.04
1244.04
1244.04
1244.04
1244.04
1244.04
1244.04
1244.04
1244.04
1244.04
1244.04
1244.04
1244.04
1244.04
1244.04
1244.04
1244.04
1244.04
1244.04
1244.04
1244.04
1244.04
1244.04
1244.04
1244.04
1244.04
1244.04
1244.04
1244.04
1244.04
1244.04
1244.04
1244.04
1244.04
1244.04
)
;

boundaryField
{
    top
    {
        type            fixedValue;
        value           uniform 1258.53;
    }
    inlet
    {
        type            fixedValue;
        value           uniform 1000;
    }
    outlet
    {
        type            zeroGradient;
    }
    bottom
    {
        type            symmetryPlane;
    }
    frontAndBack
    {
        type            empty;
    }
}


// ************************************************************************* //
