/*--------------------------------*- C++ -*----------------------------------*\
| =========                 |                                                 |
| \\      /  F ield         | OpenFOAM: The Open Source CFD Toolbox           |
|  \\    /   O peration     | Version:  2412                                  |
|   \\  /    A nd           | Website:  www.openfoam.com                      |
|    \\/     M anipulation  |                                                 |
\*---------------------------------------------------------------------------*/
FoamFile
{
    version     2.0;
    format      ascii;
    arch        "LSB;label=32;scalar=64";
    class       volScalarField;
    location    "0.0025";
    object      TTR;
}
// * * * * * * * * * * * * * * * * * * * * * * * * * * * * * * * * * * * * * //

dimensions      [0 0 0 1 0 0 0];

internalField   nonuniform List<scalar> 
1800
(
1000.63
1001.87
1003.06
1004.17
1005.19
1006.11
1006.91
1007.6
1008.18
1008.66
1009.06
1009.39
1009.65
1009.86
1010.02
1010.15
1010.25
1010.33
1010.39
1010.44
1010.48
1010.5
1010.52
1010.54
1010.55
1010.56
1010.57
1010.57
1010.58
1010.58
1010.58
1010.59
1010.59
1010.59
1010.59
1010.59
1010.59
1010.59
1010.59
1010.59
1010.59
1010.59
1010.59
1010.59
1010.59
1010.59
1010.59
1010.59
1010.59
1010.59
1010.59
1010.59
1010.59
1010.59
1010.59
1010.59
1010.59
1010.59
1010.59
1010.59
1000.64
1001.91
1003.12
1004.26
1005.31
1006.24
1007.05
1007.75
1008.34
1008.83
1009.24
1009.56
1009.83
1010.04
1010.2
1010.33
1010.43
1010.51
1010.57
1010.62
1010.66
1010.68
1010.7
1010.72
1010.73
1010.74
1010.75
1010.75
1010.76
1010.76
1010.76
1010.77
1010.77
1010.77
1010.77
1010.77
1010.77
1010.77
1010.77
1010.77
1010.77
1010.77
1010.77
1010.77
1010.77
1010.77
1010.77
1010.77
1010.77
1010.77
1010.77
1010.77
1010.77
1010.77
1010.77
1010.77
1010.77
1010.77
1010.77
1010.77
1000.67
1002
1003.27
1004.45
1005.54
1006.5
1007.34
1008.06
1008.67
1009.17
1009.58
1009.92
1010.18
1010.4
1010.56
1010.7
1010.8
1010.88
1010.94
1010.98
1011.02
1011.05
1011.07
1011.08
1011.1
1011.11
1011.11
1011.12
1011.12
1011.13
1011.13
1011.13
1011.13
1011.13
1011.13
1011.13
1011.13
1011.13
1011.13
1011.13
1011.13
1011.13
1011.13
1011.13
1011.13
1011.13
1011.13
1011.13
1011.13
1011.13
1011.13
1011.13
1011.13
1011.13
1011.13
1011.13
1011.13
1011.13
1011.13
1011.13
1000.72
1002.13
1003.48
1004.74
1005.89
1006.91
1007.79
1008.54
1009.17
1009.69
1010.11
1010.46
1010.73
1010.94
1011.11
1011.25
1011.35
1011.43
1011.49
1011.54
1011.57
1011.6
1011.62
1011.64
1011.65
1011.66
1011.67
1011.67
1011.68
1011.68
1011.68
1011.68
1011.68
1011.69
1011.69
1011.69
1011.69
1011.69
1011.69
1011.69
1011.69
1011.69
1011.69
1011.69
1011.69
1011.69
1011.69
1011.69
1011.69
1011.69
1011.69
1011.69
1011.69
1011.69
1011.69
1011.69
1011.69
1011.69
1011.69
1011.69
1000.78
1002.31
1003.78
1005.14
1006.37
1007.46
1008.4
1009.19
1009.85
1010.4
1010.84
1011.19
1011.47
1011.69
1011.86
1012
1012.1
1012.18
1012.24
1012.29
1012.33
1012.35
1012.38
1012.39
1012.4
1012.41
1012.42
1012.42
1012.43
1012.43
1012.43
1012.44
1012.44
1012.44
1012.44
1012.44
1012.44
1012.44
1012.44
1012.44
1012.44
1012.44
1012.44
1012.44
1012.44
1012.44
1012.44
1012.44
1012.44
1012.44
1012.44
1012.44
1012.44
1012.44
1012.44
1012.44
1012.44
1012.44
1012.44
1012.44
1000.86
1002.55
1004.17
1005.66
1007
1008.18
1009.18
1010.03
1010.73
1011.3
1011.76
1012.13
1012.42
1012.64
1012.82
1012.96
1013.06
1013.15
1013.21
1013.26
1013.29
1013.32
1013.34
1013.36
1013.37
1013.38
1013.38
1013.39
1013.39
1013.4
1013.4
1013.4
1013.4
1013.4
1013.4
1013.4
1013.4
1013.4
1013.4
1013.4
1013.4
1013.41
1013.41
1013.41
1013.41
1013.41
1013.41
1013.41
1013.41
1013.41
1013.41
1013.41
1013.41
1013.41
1013.41
1013.41
1013.41
1013.41
1013.41
1013.41
1000.96
1002.86
1004.66
1006.31
1007.79
1009.07
1010.17
1011.08
1011.82
1012.43
1012.91
1013.29
1013.59
1013.83
1014.01
1014.15
1014.26
1014.34
1014.4
1014.45
1014.48
1014.51
1014.53
1014.55
1014.56
1014.57
1014.58
1014.58
1014.59
1014.59
1014.59
1014.59
1014.59
1014.6
1014.6
1014.6
1014.6
1014.6
1014.6
1014.6
1014.6
1014.6
1014.6
1014.6
1014.6
1014.6
1014.6
1014.6
1014.6
1014.6
1014.6
1014.6
1014.6
1014.6
1014.6
1014.6
1014.6
1014.6
1014.6
1014.6
1001.09
1003.23
1005.26
1007.11
1008.75
1010.17
1011.36
1012.35
1013.15
1013.79
1014.3
1014.7
1015.02
1015.26
1015.44
1015.59
1015.7
1015.78
1015.84
1015.89
1015.93
1015.95
1015.98
1015.99
1016
1016.01
1016.02
1016.02
1016.03
1016.03
1016.03
1016.03
1016.04
1016.04
1016.04
1016.04
1016.04
1016.04
1016.04
1016.04
1016.04
1016.04
1016.04
1016.04
1016.04
1016.04
1016.04
1016.04
1016.04
1016.04
1016.04
1016.04
1016.04
1016.04
1016.04
1016.04
1016.04
1016.04
1016.04
1016.04
1001.25
1003.69
1005.99
1008.08
1009.92
1011.49
1012.8
1013.88
1014.74
1015.43
1015.97
1016.39
1016.71
1016.96
1017.15
1017.3
1017.41
1017.49
1017.56
1017.6
1017.64
1017.67
1017.69
1017.71
1017.72
1017.73
1017.73
1017.74
1017.74
1017.74
1017.75
1017.75
1017.75
1017.75
1017.75
1017.75
1017.75
1017.75
1017.75
1017.75
1017.75
1017.75
1017.75
1017.75
1017.75
1017.75
1017.75
1017.75
1017.75
1017.75
1017.75
1017.75
1017.75
1017.75
1017.75
1017.75
1017.75
1017.75
1017.75
1017.75
1001.43
1004.24
1006.87
1009.25
1011.32
1013.07
1014.52
1015.69
1016.62
1017.36
1017.93
1018.37
1018.71
1018.97
1019.16
1019.31
1019.42
1019.51
1019.57
1019.62
1019.66
1019.69
1019.71
1019.72
1019.73
1019.74
1019.75
1019.75
1019.76
1019.76
1019.76
1019.76
1019.76
1019.77
1019.77
1019.77
1019.77
1019.77
1019.77
1019.77
1019.77
1019.77
1019.77
1019.77
1019.77
1019.77
1019.77
1019.77
1019.77
1019.77
1019.77
1019.77
1019.77
1019.77
1019.77
1019.77
1019.77
1019.77
1019.77
1019.77
1001.66
1004.9
1007.93
1010.64
1012.98
1014.94
1016.54
1017.82
1018.83
1019.62
1020.23
1020.69
1021.04
1021.31
1021.51
1021.66
1021.78
1021.86
1021.93
1021.97
1022.01
1022.04
1022.06
1022.07
1022.08
1022.09
1022.1
1022.1
1022.11
1022.11
1022.11
1022.11
1022.12
1022.12
1022.12
1022.12
1022.12
1022.12
1022.12
1022.12
1022.12
1022.12
1022.12
1022.12
1022.12
1022.12
1022.12
1022.12
1022.12
1022.12
1022.12
1022.12
1022.12
1022.12
1022.12
1022.12
1022.12
1022.12
1022.12
1022.12
1001.93
1005.7
1009.2
1012.31
1014.96
1017.15
1018.93
1020.33
1021.42
1022.26
1022.9
1023.39
1023.75
1024.03
1024.23
1024.39
1024.5
1024.59
1024.65
1024.7
1024.74
1024.77
1024.79
1024.8
1024.81
1024.82
1024.83
1024.83
1024.84
1024.84
1024.84
1024.84
1024.84
1024.84
1024.84
1024.84
1024.84
1024.85
1024.85
1024.85
1024.85
1024.85
1024.85
1024.85
1024.85
1024.85
1024.85
1024.85
1024.85
1024.85
1024.85
1024.85
1024.85
1024.85
1024.85
1024.85
1024.85
1024.85
1024.85
1024.85
1002.26
1006.67
1010.72
1014.29
1017.3
1019.76
1021.72
1023.25
1024.43
1025.32
1026
1026.51
1026.89
1027.17
1027.38
1027.54
1027.65
1027.74
1027.81
1027.85
1027.89
1027.92
1027.94
1027.95
1027.96
1027.97
1027.98
1027.98
1027.98
1027.99
1027.99
1027.99
1027.99
1027.99
1027.99
1027.99
1027.99
1027.99
1027.99
1027.99
1027.99
1027.99
1027.99
1027.99
1027.99
1027.99
1027.99
1027.99
1027.99
1027.99
1027.99
1027.99
1027.99
1027.99
1027.99
1027.99
1027.99
1027.99
1027.99
1027.99
1002.66
1007.82
1012.54
1016.64
1020.06
1022.82
1024.98
1026.65
1027.92
1028.87
1029.58
1030.11
1030.5
1030.79
1031.01
1031.16
1031.28
1031.37
1031.43
1031.48
1031.51
1031.54
1031.56
1031.57
1031.59
1031.59
1031.6
1031.6
1031.61
1031.61
1031.61
1031.61
1031.61
1031.61
1031.62
1031.62
1031.62
1031.62
1031.62
1031.62
1031.62
1031.62
1031.62
1031.62
1031.62
1031.62
1031.62
1031.62
1031.62
1031.62
1031.62
1031.62
1031.62
1031.62
1031.62
1031.62
1031.62
1031.62
1031.62
1031.62
1003.14
1009.22
1014.72
1019.45
1023.32
1026.4
1028.79
1030.6
1031.95
1032.96
1033.71
1034.25
1034.66
1034.95
1035.17
1035.33
1035.45
1035.53
1035.59
1035.64
1035.68
1035.7
1035.72
1035.73
1035.75
1035.75
1035.76
1035.76
1035.77
1035.77
1035.77
1035.77
1035.77
1035.77
1035.77
1035.77
1035.77
1035.78
1035.78
1035.78
1035.78
1035.78
1035.78
1035.78
1035.78
1035.78
1035.78
1035.78
1035.78
1035.78
1035.78
1035.78
1035.78
1035.78
1035.78
1035.78
1035.78
1035.78
1035.78
1035.78
1003.73
1010.9
1017.33
1022.78
1027.17
1030.6
1033.21
1035.17
1036.61
1037.67
1038.45
1039.01
1039.42
1039.72
1039.94
1040.1
1040.22
1040.3
1040.36
1040.41
1040.44
1040.47
1040.49
1040.5
1040.51
1040.52
1040.52
1040.53
1040.53
1040.53
1040.53
1040.54
1040.54
1040.54
1040.54
1040.54
1040.54
1040.54
1040.54
1040.54
1040.54
1040.54
1040.54
1040.54
1040.54
1040.54
1040.54
1040.54
1040.54
1040.54
1040.54
1040.54
1040.54
1040.54
1040.54
1040.54
1040.54
1040.54
1040.54
1040.54
1004.44
1012.94
1020.48
1026.74
1031.71
1035.51
1038.36
1040.46
1041.98
1043.09
1043.89
1044.47
1044.88
1045.18
1045.4
1045.56
1045.67
1045.76
1045.82
1045.86
1045.9
1045.92
1045.94
1045.95
1045.96
1045.97
1045.97
1045.98
1045.98
1045.98
1045.98
1045.99
1045.99
1045.99
1045.99
1045.99
1045.99
1045.99
1045.99
1045.99
1045.99
1045.99
1045.99
1045.99
1045.99
1045.99
1045.99
1045.99
1045.99
1045.99
1045.99
1045.99
1045.99
1045.99
1045.99
1045.99
1045.99
1045.99
1045.99
1045.99
1005.32
1015.44
1024.26
1031.46
1037.05
1041.25
1044.33
1046.56
1048.16
1049.31
1050.13
1050.71
1051.13
1051.43
1051.64
1051.8
1051.91
1051.99
1052.05
1052.1
1052.13
1052.15
1052.17
1052.18
1052.19
1052.2
1052.2
1052.2
1052.21
1052.21
1052.21
1052.21
1052.21
1052.21
1052.21
1052.21
1052.21
1052.21
1052.21
1052.22
1052.22
1052.22
1052.22
1052.22
1052.22
1052.22
1052.22
1052.22
1052.22
1052.22
1052.22
1052.22
1052.22
1052.22
1052.22
1052.22
1052.22
1052.22
1052.22
1052.22
1006.4
1018.49
1028.85
1037.1
1043.36
1047.95
1051.25
1053.6
1055.26
1056.44
1057.27
1057.85
1058.27
1058.56
1058.77
1058.92
1059.03
1059.11
1059.17
1059.21
1059.24
1059.26
1059.28
1059.29
1059.3
1059.3
1059.31
1059.31
1059.31
1059.32
1059.32
1059.32
1059.32
1059.32
1059.32
1059.32
1059.32
1059.32
1059.32
1059.32
1059.32
1059.32
1059.32
1059.32
1059.32
1059.32
1059.32
1059.32
1059.32
1059.32
1059.32
1059.32
1059.32
1059.32
1059.32
1059.32
1059.32
1059.32
1059.32
1059.32
1007.76
1022.27
1034.42
1043.84
1050.79
1055.76
1059.26
1061.71
1063.41
1064.6
1065.42
1066
1066.41
1066.7
1066.9
1067.05
1067.15
1067.23
1067.28
1067.32
1067.35
1067.37
1067.39
1067.4
1067.4
1067.41
1067.42
1067.42
1067.42
1067.42
1067.42
1067.43
1067.43
1067.43
1067.43
1067.43
1067.43
1067.43
1067.43
1067.43
1067.43
1067.43
1067.43
1067.43
1067.43
1067.43
1067.43
1067.43
1067.43
1067.43
1067.43
1067.43
1067.43
1067.43
1067.43
1067.43
1067.43
1067.43
1067.43
1067.43
1009.49
1026.98
1041.21
1051.89
1059.54
1064.86
1068.52
1071.03
1072.75
1073.93
1074.74
1075.31
1075.7
1075.98
1076.17
1076.31
1076.41
1076.48
1076.53
1076.57
1076.6
1076.61
1076.63
1076.64
1076.65
1076.65
1076.66
1076.66
1076.66
1076.66
1076.66
1076.66
1076.67
1076.67
1076.67
1076.67
1076.67
1076.67
1076.67
1076.67
1076.67
1076.67
1076.67
1076.67
1076.67
1076.67
1076.67
1076.67
1076.67
1076.67
1076.67
1076.67
1076.67
1076.67
1076.67
1076.67
1076.67
1076.67
1076.67
1076.67
1011.72
1032.91
1049.54
1061.54
1069.83
1075.44
1079.2
1081.73
1083.43
1084.59
1085.37
1085.92
1086.29
1086.55
1086.74
1086.87
1086.96
1087.02
1087.07
1087.1
1087.13
1087.15
1087.16
1087.17
1087.17
1087.18
1087.18
1087.19
1087.19
1087.19
1087.19
1087.19
1087.19
1087.19
1087.19
1087.19
1087.19
1087.19
1087.19
1087.19
1087.19
1087.19
1087.19
1087.19
1087.19
1087.19
1087.19
1087.19
1087.19
1087.19
1087.19
1087.19
1087.19
1087.19
1087.19
1087.19
1087.19
1087.19
1087.19
1087.19
1014.68
1040.47
1059.79
1073.1
1081.94
1087.72
1091.5
1093.99
1095.64
1096.75
1097.49
1098
1098.35
1098.6
1098.76
1098.88
1098.97
1099.03
1099.07
1099.1
1099.12
1099.14
1099.15
1099.16
1099.16
1099.17
1099.17
1099.17
1099.18
1099.18
1099.18
1099.18
1099.18
1099.18
1099.18
1099.18
1099.18
1099.18
1099.18
1099.18
1099.18
1099.18
1099.18
1099.18
1099.18
1099.18
1099.18
1099.18
1099.18
1099.18
1099.18
1099.18
1099.18
1099.18
1099.18
1099.18
1099.18
1099.18
1099.18
1099.18
1018.71
1050.23
1072.45
1086.94
1096.13
1101.94
1105.64
1108.02
1109.58
1110.61
1111.3
1111.77
1112.08
1112.3
1112.46
1112.56
1112.64
1112.69
1112.73
1112.76
1112.78
1112.79
1112.8
1112.81
1112.81
1112.82
1112.82
1112.82
1112.82
1112.82
1112.82
1112.83
1112.83
1112.83
1112.83
1112.83
1112.83
1112.83
1112.83
1112.83
1112.83
1112.83
1112.83
1112.83
1112.83
1112.83
1112.83
1112.83
1112.83
1112.83
1112.83
1112.83
1112.83
1112.83
1112.83
1112.83
1112.83
1112.83
1112.83
1112.83
1024.44
1063.01
1088.14
1103.48
1112.72
1118.35
1121.85
1124.05
1125.47
1126.4
1127.01
1127.43
1127.71
1127.9
1128.03
1128.13
1128.19
1128.24
1128.27
1128.29
1128.31
1128.32
1128.33
1128.34
1128.34
1128.35
1128.35
1128.35
1128.35
1128.35
1128.35
1128.35
1128.35
1128.35
1128.35
1128.36
1128.36
1128.36
1128.36
1128.36
1128.36
1128.36
1128.36
1128.36
1128.36
1128.36
1128.36
1128.36
1128.36
1128.36
1128.36
1128.36
1128.36
1128.36
1128.36
1128.36
1128.36
1128.36
1128.36
1128.36
1032.98
1079.99
1107.61
1123.17
1132.04
1137.24
1140.38
1142.33
1143.56
1144.36
1144.89
1145.24
1145.48
1145.64
1145.75
1145.83
1145.88
1145.92
1145.95
1145.97
1145.98
1145.99
1146
1146.01
1146.01
1146.01
1146.01
1146.02
1146.02
1146.02
1146.02
1146.02
1146.02
1146.02
1146.02
1146.02
1146.02
1146.02
1146.02
1146.02
1146.02
1146.02
1146.02
1146.02
1146.02
1146.02
1146.02
1146.02
1146.02
1146.02
1146.02
1146.02
1146.02
1146.02
1146.02
1146.02
1146.02
1146.02
1146.02
1146.02
1046.49
1102.84
1131.68
1146.47
1154.41
1158.89
1161.52
1163.13
1164.14
1164.79
1165.21
1165.49
1165.68
1165.81
1165.9
1165.96
1166
1166.03
1166.05
1166.07
1166.08
1166.09
1166.09
1166.1
1166.1
1166.1
1166.1
1166.1
1166.11
1166.11
1166.11
1166.11
1166.11
1166.11
1166.11
1166.11
1166.11
1166.11
1166.11
1166.11
1166.11
1166.11
1166.11
1166.11
1166.11
1166.11
1166.11
1166.11
1166.11
1166.11
1166.11
1166.11
1166.11
1166.11
1166.11
1166.11
1166.11
1166.11
1166.11
1166.11
1069.34
1133.82
1161.22
1173.8
1180.14
1183.59
1185.58
1186.77
1187.52
1187.99
1188.3
1188.5
1188.64
1188.73
1188.79
1188.84
1188.87
1188.89
1188.91
1188.92
1188.93
1188.93
1188.93
1188.94
1188.94
1188.94
1188.94
1188.94
1188.94
1188.94
1188.94
1188.94
1188.95
1188.95
1188.95
1188.95
1188.95
1188.95
1188.95
1188.95
1188.95
1188.95
1188.95
1188.95
1188.95
1188.95
1188.95
1188.95
1188.95
1188.95
1188.95
1188.95
1188.95
1188.95
1188.95
1188.95
1188.95
1188.95
1188.95
1188.95
1110.63
1175.64
1196.88
1205.45
1209.51
1211.66
1212.88
1213.6
1214.05
1214.33
1214.52
1214.64
1214.72
1214.78
1214.81
1214.84
1214.86
1214.87
1214.88
1214.89
1214.89
1214.89
1214.9
1214.9
1214.9
1214.9
1214.9
1214.9
1214.9
1214.9
1214.9
1214.9
1214.9
1214.9
1214.9
1214.9
1214.9
1214.9
1214.9
1214.9
1214.9
1214.9
1214.9
1214.9
1214.9
1214.9
1214.9
1214.9
1214.9
1214.9
1214.9
1214.9
1214.9
1214.9
1214.9
1214.9
1214.9
1214.9
1214.9
1214.9
1189.6
1230.21
1238.46
1241.3
1242.58
1243.24
1243.62
1243.84
1243.97
1244.06
1244.11
1244.15
1244.18
1244.19
1244.2
1244.21
1244.22
1244.22
1244.22
1244.23
1244.23
1244.23
1244.23
1244.23
1244.23
1244.23
1244.23
1244.23
1244.23
1244.23
1244.23
1244.23
1244.23
1244.23
1244.23
1244.23
1244.23
1244.23
1244.23
1244.23
1244.23
1244.23
1244.23
1244.23
1244.23
1244.23
1244.23
1244.23
1244.23
1244.23
1244.23
1244.23
1244.23
1244.23
1244.23
1244.23
1244.23
1244.23
1244.23
1244.23
)
;

boundaryField
{
    top
    {
        type            fixedValue;
        value           uniform 1258.53;
    }
    inlet
    {
        type            fixedValue;
        value           uniform 1000;
    }
    outlet
    {
        type            zeroGradient;
    }
    bottom
    {
        type            symmetryPlane;
    }
    frontAndBack
    {
        type            empty;
    }
}


// ************************************************************************* //
