/*--------------------------------*- C++ -*----------------------------------*\
| =========                 |                                                 |
| \\      /  F ield         | OpenFOAM: The Open Source CFD Toolbox           |
|  \\    /   O peration     | Version:  2412                                  |
|   \\  /    A nd           | Website:  www.openfoam.com                      |
|    \\/     M anipulation  |                                                 |
\*---------------------------------------------------------------------------*/
FoamFile
{
    version     2.0;
    format      ascii;
    arch        "LSB;label=32;scalar=64";
    class       volScalarField;
    location    "0.0025";
    object      TTR;
}
// * * * * * * * * * * * * * * * * * * * * * * * * * * * * * * * * * * * * * //

dimensions      [0 0 0 1 0 0 0];

internalField   nonuniform List<scalar> 
1800
(
1001.91
1005.7
1009.37
1012.87
1016.14
1019.14
1021.86
1024.29
1026.42
1028.28
1029.89
1031.26
1032.42
1033.4
1034.23
1034.92
1035.49
1035.96
1036.35
1036.68
1036.94
1037.16
1037.34
1037.48
1037.6
1037.7
1037.78
1037.85
1037.9
1037.94
1037.98
1038
1038.03
1038.05
1038.06
1038.07
1038.08
1038.09
1038.1
1038.1
1038.11
1038.11
1038.12
1038.12
1038.12
1038.12
1038.12
1038.12
1038.12
1038.13
1038.13
1038.13
1038.13
1038.13
1038.13
1038.13
1038.13
1038.13
1038.13
1038.13
1001.94
1005.77
1009.48
1013.02
1016.32
1019.36
1022.1
1024.54
1026.69
1028.56
1030.17
1031.54
1032.71
1033.7
1034.52
1035.21
1035.78
1036.25
1036.65
1036.97
1037.23
1037.45
1037.63
1037.77
1037.89
1037.99
1038.07
1038.13
1038.19
1038.23
1038.26
1038.29
1038.32
1038.34
1038.35
1038.36
1038.37
1038.38
1038.39
1038.39
1038.4
1038.4
1038.4
1038.41
1038.41
1038.41
1038.41
1038.41
1038.41
1038.41
1038.41
1038.42
1038.42
1038.42
1038.42
1038.42
1038.42
1038.42
1038.42
1038.42
1001.98
1005.91
1009.71
1013.33
1016.7
1019.79
1022.57
1025.05
1027.22
1029.11
1030.73
1032.12
1033.29
1034.28
1035.1
1035.79
1036.37
1036.84
1037.23
1037.55
1037.82
1038.03
1038.21
1038.36
1038.47
1038.57
1038.65
1038.71
1038.77
1038.81
1038.84
1038.87
1038.9
1038.91
1038.93
1038.94
1038.95
1038.96
1038.97
1038.97
1038.98
1038.98
1038.98
1038.99
1038.99
1038.99
1038.99
1038.99
1038.99
1038.99
1038.99
1038.99
1038.99
1038.99
1038.99
1039
1039
1039
1039
1039
1002.06
1006.12
1010.06
1013.79
1017.26
1020.44
1023.29
1025.82
1028.03
1029.94
1031.59
1032.98
1034.17
1035.16
1035.99
1036.68
1037.25
1037.72
1038.11
1038.43
1038.7
1038.91
1039.09
1039.23
1039.35
1039.45
1039.53
1039.59
1039.64
1039.68
1039.72
1039.75
1039.77
1039.79
1039.8
1039.82
1039.83
1039.83
1039.84
1039.85
1039.85
1039.85
1039.86
1039.86
1039.86
1039.86
1039.86
1039.86
1039.87
1039.87
1039.87
1039.87
1039.87
1039.87
1039.87
1039.87
1039.87
1039.87
1039.87
1039.87
1002.15
1006.41
1010.53
1014.42
1018.03
1021.32
1024.26
1026.85
1029.12
1031.07
1032.74
1034.15
1035.34
1036.34
1037.18
1037.87
1038.44
1038.91
1039.3
1039.62
1039.88
1040.1
1040.27
1040.41
1040.53
1040.63
1040.7
1040.77
1040.82
1040.86
1040.9
1040.92
1040.95
1040.96
1040.98
1040.99
1041
1041.01
1041.02
1041.02
1041.03
1041.03
1041.03
1041.03
1041.04
1041.04
1041.04
1041.04
1041.04
1041.04
1041.04
1041.04
1041.04
1041.04
1041.04
1041.04
1041.04
1041.04
1041.04
1041.04
1002.28
1006.79
1011.13
1015.23
1019.01
1022.44
1025.49
1028.18
1030.5
1032.5
1034.2
1035.63
1036.84
1037.84
1038.68
1039.37
1039.94
1040.41
1040.8
1041.12
1041.38
1041.59
1041.77
1041.91
1042.02
1042.12
1042.19
1042.26
1042.31
1042.35
1042.38
1042.41
1042.43
1042.45
1042.47
1042.48
1042.49
1042.5
1042.5
1042.51
1042.51
1042.51
1042.52
1042.52
1042.52
1042.52
1042.52
1042.53
1042.53
1042.53
1042.53
1042.53
1042.53
1042.53
1042.53
1042.53
1042.53
1042.53
1042.53
1042.53
1002.44
1007.25
1011.88
1016.23
1020.22
1023.82
1027.01
1029.79
1032.19
1034.24
1035.98
1037.44
1038.65
1039.67
1040.51
1041.2
1041.77
1042.24
1042.63
1042.94
1043.2
1043.41
1043.58
1043.72
1043.84
1043.93
1044.01
1044.07
1044.12
1044.16
1044.19
1044.22
1044.24
1044.26
1044.27
1044.29
1044.3
1044.3
1044.31
1044.31
1044.32
1044.32
1044.32
1044.33
1044.33
1044.33
1044.33
1044.33
1044.33
1044.33
1044.33
1044.34
1044.34
1044.34
1044.34
1044.34
1044.34
1044.34
1044.34
1044.34
1002.63
1007.81
1012.78
1017.43
1021.68
1025.48
1028.83
1031.73
1034.21
1036.32
1038.1
1039.58
1040.81
1041.83
1042.68
1043.37
1043.94
1044.41
1044.79
1045.1
1045.36
1045.57
1045.74
1045.88
1045.99
1046.08
1046.16
1046.22
1046.27
1046.31
1046.34
1046.36
1046.39
1046.4
1046.42
1046.43
1046.44
1046.45
1046.45
1046.46
1046.46
1046.46
1046.47
1046.47
1046.47
1046.47
1046.47
1046.48
1046.48
1046.48
1046.48
1046.48
1046.48
1046.48
1046.48
1046.48
1046.48
1046.48
1046.48
1046.48
1002.86
1008.48
1013.86
1018.86
1023.41
1027.45
1030.97
1034
1036.58
1038.75
1040.57
1042.08
1043.33
1044.36
1045.21
1045.9
1046.47
1046.93
1047.31
1047.62
1047.87
1048.08
1048.25
1048.38
1048.49
1048.58
1048.66
1048.72
1048.76
1048.8
1048.83
1048.86
1048.88
1048.9
1048.91
1048.92
1048.93
1048.94
1048.95
1048.95
1048.96
1048.96
1048.96
1048.96
1048.97
1048.97
1048.97
1048.97
1048.97
1048.97
1048.97
1048.97
1048.97
1048.97
1048.97
1048.97
1048.97
1048.97
1048.97
1048.97
1003.13
1009.27
1015.13
1020.55
1025.43
1029.74
1033.46
1036.64
1039.32
1041.57
1043.43
1044.96
1046.23
1047.26
1048.11
1048.8
1049.37
1049.83
1050.21
1050.51
1050.76
1050.96
1051.13
1051.26
1051.37
1051.46
1051.53
1051.59
1051.63
1051.67
1051.7
1051.73
1051.75
1051.77
1051.78
1051.79
1051.8
1051.81
1051.81
1051.82
1051.82
1051.82
1051.83
1051.83
1051.83
1051.83
1051.83
1051.83
1051.83
1051.83
1051.84
1051.84
1051.84
1051.84
1051.84
1051.84
1051.84
1051.84
1051.84
1051.84
1003.44
1010.21
1016.62
1022.52
1027.79
1032.39
1036.34
1039.68
1042.47
1044.78
1046.69
1048.25
1049.53
1050.57
1051.42
1052.11
1052.67
1053.13
1053.5
1053.8
1054.04
1054.24
1054.4
1054.53
1054.64
1054.72
1054.79
1054.85
1054.89
1054.93
1054.96
1054.99
1055.01
1055.02
1055.04
1055.05
1055.06
1055.06
1055.07
1055.07
1055.08
1055.08
1055.08
1055.08
1055.09
1055.09
1055.09
1055.09
1055.09
1055.09
1055.09
1055.09
1055.09
1055.09
1055.09
1055.09
1055.09
1055.09
1055.09
1055.09
1003.82
1011.3
1018.36
1024.8
1030.51
1035.45
1039.64
1043.14
1046.05
1048.43
1050.38
1051.97
1053.26
1054.31
1055.15
1055.84
1056.39
1056.84
1057.21
1057.5
1057.74
1057.94
1058.09
1058.22
1058.32
1058.41
1058.47
1058.53
1058.57
1058.61
1058.64
1058.66
1058.68
1058.7
1058.71
1058.72
1058.73
1058.74
1058.74
1058.75
1058.75
1058.75
1058.76
1058.76
1058.76
1058.76
1058.76
1058.76
1058.76
1058.76
1058.76
1058.76
1058.77
1058.77
1058.77
1058.77
1058.77
1058.77
1058.77
1058.77
1004.25
1012.58
1020.39
1027.45
1033.65
1038.95
1043.39
1047.08
1050.1
1052.55
1054.54
1056.15
1057.45
1058.5
1059.34
1060.02
1060.57
1061.01
1061.37
1061.66
1061.89
1062.08
1062.23
1062.36
1062.46
1062.54
1062.6
1062.65
1062.7
1062.73
1062.76
1062.78
1062.8
1062.82
1062.83
1062.84
1062.85
1062.85
1062.86
1062.86
1062.87
1062.87
1062.87
1062.88
1062.88
1062.88
1062.88
1062.88
1062.88
1062.88
1062.88
1062.88
1062.88
1062.88
1062.88
1062.88
1062.88
1062.88
1062.88
1062.88
1004.77
1014.07
1022.75
1030.52
1037.25
1042.94
1047.66
1051.53
1054.66
1057.18
1059.21
1060.84
1062.14
1063.18
1064.02
1064.69
1065.23
1065.66
1066.01
1066.29
1066.52
1066.7
1066.85
1066.97
1067.06
1067.14
1067.21
1067.26
1067.3
1067.33
1067.36
1067.38
1067.4
1067.41
1067.43
1067.43
1067.44
1067.45
1067.45
1067.46
1067.46
1067.46
1067.47
1067.47
1067.47
1067.47
1067.47
1067.47
1067.47
1067.47
1067.47
1067.47
1067.48
1067.48
1067.48
1067.48
1067.48
1067.48
1067.48
1067.48
1005.37
1015.82
1025.49
1034.06
1041.39
1047.5
1052.5
1056.54
1059.78
1062.36
1064.42
1066.06
1067.36
1068.39
1069.22
1069.88
1070.41
1070.83
1071.17
1071.44
1071.66
1071.83
1071.98
1072.09
1072.18
1072.26
1072.32
1072.37
1072.41
1072.44
1072.47
1072.49
1072.51
1072.52
1072.53
1072.54
1072.55
1072.55
1072.56
1072.56
1072.57
1072.57
1072.57
1072.57
1072.57
1072.57
1072.58
1072.58
1072.58
1072.58
1072.58
1072.58
1072.58
1072.58
1072.58
1072.58
1072.58
1072.58
1072.58
1072.58
1006.08
1017.88
1028.7
1038.15
1046.12
1052.67
1057.96
1062.17
1065.51
1068.14
1070.22
1071.85
1073.15
1074.17
1074.98
1075.63
1076.14
1076.55
1076.88
1077.14
1077.35
1077.52
1077.66
1077.77
1077.86
1077.93
1077.99
1078.03
1078.07
1078.1
1078.13
1078.15
1078.16
1078.17
1078.19
1078.19
1078.2
1078.21
1078.21
1078.22
1078.22
1078.22
1078.22
1078.22
1078.23
1078.23
1078.23
1078.23
1078.23
1078.23
1078.23
1078.23
1078.23
1078.23
1078.23
1078.23
1078.23
1078.23
1078.23
1078.23
1006.93
1020.31
1032.44
1042.89
1051.55
1058.55
1064.11
1068.48
1071.9
1074.57
1076.65
1078.28
1079.56
1080.56
1081.35
1081.98
1082.48
1082.87
1083.19
1083.44
1083.64
1083.8
1083.93
1084.04
1084.12
1084.19
1084.24
1084.29
1084.32
1084.35
1084.38
1084.39
1084.41
1084.42
1084.43
1084.44
1084.45
1084.45
1084.46
1084.46
1084.46
1084.47
1084.47
1084.47
1084.47
1084.47
1084.47
1084.47
1084.47
1084.47
1084.47
1084.47
1084.47
1084.47
1084.48
1084.48
1084.48
1084.48
1084.48
1084.48
1007.94
1023.19
1036.83
1048.37
1057.76
1065.21
1071.03
1075.53
1079.01
1081.69
1083.77
1085.38
1086.63
1087.61
1088.38
1088.98
1089.46
1089.84
1090.14
1090.38
1090.57
1090.72
1090.85
1090.94
1091.02
1091.09
1091.14
1091.18
1091.21
1091.24
1091.26
1091.28
1091.3
1091.31
1091.32
1091.33
1091.33
1091.34
1091.34
1091.34
1091.35
1091.35
1091.35
1091.35
1091.35
1091.35
1091.36
1091.36
1091.36
1091.36
1091.36
1091.36
1091.36
1091.36
1091.36
1091.36
1091.36
1091.36
1091.36
1091.36
1009.15
1026.62
1042
1054.73
1064.87
1072.75
1078.8
1083.4
1086.91
1089.59
1091.63
1093.21
1094.43
1095.37
1096.11
1096.69
1097.14
1097.5
1097.79
1098.01
1098.19
1098.34
1098.45
1098.55
1098.62
1098.68
1098.73
1098.77
1098.8
1098.82
1098.84
1098.86
1098.87
1098.89
1098.89
1098.9
1098.91
1098.91
1098.92
1098.92
1098.92
1098.92
1098.93
1098.93
1098.93
1098.93
1098.93
1098.93
1098.93
1098.93
1098.93
1098.93
1098.93
1098.93
1098.93
1098.93
1098.93
1098.93
1098.93
1098.93
1010.64
1030.76
1048.11
1062.13
1073.01
1081.28
1087.5
1092.17
1095.67
1098.31
1100.31
1101.83
1103
1103.91
1104.61
1105.15
1105.58
1105.92
1106.19
1106.4
1106.57
1106.7
1106.81
1106.9
1106.97
1107.02
1107.07
1107.1
1107.13
1107.15
1107.17
1107.19
1107.2
1107.21
1107.22
1107.23
1107.23
1107.24
1107.24
1107.24
1107.25
1107.25
1107.25
1107.25
1107.25
1107.25
1107.25
1107.25
1107.25
1107.25
1107.25
1107.25
1107.25
1107.25
1107.25
1107.25
1107.26
1107.26
1107.26
1107.26
1012.48
1035.8
1055.38
1070.74
1082.33
1090.92
1097.24
1101.9
1105.35
1107.92
1109.85
1111.31
1112.42
1113.27
1113.93
1114.44
1114.84
1115.16
1115.41
1115.6
1115.76
1115.88
1115.98
1116.06
1116.12
1116.18
1116.22
1116.25
1116.28
1116.3
1116.32
1116.33
1116.34
1116.35
1116.36
1116.36
1116.37
1116.37
1116.38
1116.38
1116.38
1116.38
1116.38
1116.38
1116.39
1116.39
1116.39
1116.39
1116.39
1116.39
1116.39
1116.39
1116.39
1116.39
1116.39
1116.39
1116.39
1116.39
1116.39
1116.39
1014.81
1042
1064.08
1080.78
1092.99
1101.78
1108.12
1112.7
1116.04
1118.5
1120.33
1121.71
1122.75
1123.54
1124.16
1124.63
1125
1125.28
1125.51
1125.69
1125.83
1125.94
1126.03
1126.11
1126.16
1126.21
1126.25
1126.28
1126.3
1126.32
1126.34
1126.35
1126.36
1126.37
1126.37
1126.38
1126.38
1126.39
1126.39
1126.39
1126.4
1126.4
1126.4
1126.4
1126.4
1126.4
1126.4
1126.4
1126.4
1126.4
1126.4
1126.4
1126.4
1126.4
1126.4
1126.4
1126.4
1126.4
1126.4
1126.4
1017.83
1049.73
1074.54
1092.51
1105.16
1114
1120.22
1124.64
1127.82
1130.13
1131.84
1133.11
1134.07
1134.79
1135.35
1135.78
1136.11
1136.37
1136.58
1136.74
1136.86
1136.97
1137.05
1137.11
1137.16
1137.2
1137.24
1137.26
1137.28
1137.3
1137.32
1137.33
1137.34
1137.34
1137.35
1137.35
1137.36
1137.36
1137.36
1137.37
1137.37
1137.37
1137.37
1137.37
1137.37
1137.37
1137.37
1137.37
1137.37
1137.37
1137.37
1137.37
1137.37
1137.37
1137.37
1137.37
1137.37
1137.38
1137.38
1137.38
1021.88
1059.53
1087.19
1106.2
1119.03
1127.71
1133.67
1137.82
1140.77
1142.9
1144.45
1145.6
1146.45
1147.1
1147.6
1147.98
1148.28
1148.51
1148.69
1148.83
1148.94
1149.03
1149.1
1149.15
1149.2
1149.24
1149.26
1149.29
1149.31
1149.32
1149.33
1149.34
1149.35
1149.36
1149.36
1149.37
1149.37
1149.37
1149.38
1149.38
1149.38
1149.38
1149.38
1149.38
1149.38
1149.38
1149.38
1149.38
1149.38
1149.38
1149.38
1149.39
1149.39
1149.39
1149.39
1149.39
1149.39
1149.39
1149.39
1149.39
1027.55
1072.16
1102.56
1122.17
1134.78
1143.03
1148.56
1152.34
1154.99
1156.87
1158.24
1159.25
1160
1160.56
1160.99
1161.32
1161.58
1161.77
1161.93
1162.05
1162.15
1162.22
1162.28
1162.33
1162.37
1162.4
1162.42
1162.44
1162.46
1162.47
1162.48
1162.49
1162.5
1162.5
1162.51
1162.51
1162.51
1162.52
1162.52
1162.52
1162.52
1162.52
1162.52
1162.52
1162.52
1162.52
1162.53
1162.53
1162.53
1162.53
1162.53
1162.53
1162.53
1162.53
1162.53
1162.53
1162.53
1162.53
1162.53
1162.53
1035.92
1088.73
1121.28
1140.74
1152.6
1160.09
1164.98
1168.28
1170.55
1172.16
1173.32
1174.17
1174.8
1175.27
1175.63
1175.9
1176.11
1176.28
1176.41
1176.51
1176.58
1176.65
1176.7
1176.74
1176.77
1176.79
1176.81
1176.83
1176.84
1176.85
1176.86
1176.87
1176.87
1176.88
1176.88
1176.89
1176.89
1176.89
1176.89
1176.89
1176.89
1176.89
1176.9
1176.9
1176.9
1176.9
1176.9
1176.9
1176.9
1176.9
1176.9
1176.9
1176.9
1176.9
1176.9
1176.9
1176.9
1176.9
1176.9
1176.9
1049.11
1110.8
1144.04
1162.18
1172.62
1178.98
1183.03
1185.73
1187.57
1188.86
1189.79
1190.46
1190.96
1191.33
1191.62
1191.83
1192
1192.12
1192.22
1192.3
1192.36
1192.41
1192.45
1192.48
1192.51
1192.53
1192.54
1192.56
1192.57
1192.57
1192.58
1192.59
1192.59
1192.59
1192.6
1192.6
1192.6
1192.6
1192.6
1192.6
1192.6
1192.61
1192.61
1192.61
1192.61
1192.61
1192.61
1192.61
1192.61
1192.61
1192.61
1192.61
1192.61
1192.61
1192.61
1192.61
1192.61
1192.61
1192.61
1192.61
1071.38
1140.48
1171.49
1186.68
1194.91
1199.76
1202.8
1204.79
1206.14
1207.08
1207.75
1208.24
1208.6
1208.86
1209.07
1209.22
1209.34
1209.43
1209.5
1209.56
1209.6
1209.64
1209.66
1209.69
1209.7
1209.72
1209.73
1209.74
1209.75
1209.75
1209.76
1209.76
1209.76
1209.77
1209.77
1209.77
1209.77
1209.77
1209.77
1209.77
1209.77
1209.77
1209.77
1209.77
1209.78
1209.78
1209.78
1209.78
1209.78
1209.78
1209.78
1209.78
1209.78
1209.78
1209.78
1209.78
1209.78
1209.78
1209.78
1209.78
1111.75
1180.31
1204
1214.24
1219.49
1222.5
1224.35
1225.55
1226.37
1226.93
1227.33
1227.62
1227.83
1227.99
1228.11
1228.2
1228.27
1228.33
1228.37
1228.4
1228.43
1228.45
1228.47
1228.48
1228.49
1228.5
1228.5
1228.51
1228.51
1228.52
1228.52
1228.52
1228.52
1228.53
1228.53
1228.53
1228.53
1228.53
1228.53
1228.53
1228.53
1228.53
1228.53
1228.53
1228.53
1228.53
1228.53
1228.53
1228.53
1228.53
1228.53
1228.53
1228.53
1228.53
1228.53
1228.53
1228.53
1228.53
1228.53
1228.53
1189.38
1231.84
1241.02
1244.42
1246.09
1247.02
1247.6
1247.97
1248.22
1248.39
1248.51
1248.6
1248.67
1248.72
1248.75
1248.78
1248.8
1248.82
1248.83
1248.84
1248.85
1248.86
1248.86
1248.86
1248.87
1248.87
1248.87
1248.87
1248.87
1248.88
1248.88
1248.88
1248.88
1248.88
1248.88
1248.88
1248.88
1248.88
1248.88
1248.88
1248.88
1248.88
1248.88
1248.88
1248.88
1248.88
1248.88
1248.88
1248.88
1248.88
1248.88
1248.88
1248.88
1248.88
1248.88
1248.88
1248.88
1248.88
1248.88
1248.88
)
;

boundaryField
{
    top
    {
        type            fixedValue;
        value           uniform 1258.53;
    }
    inlet
    {
        type            fixedValue;
        value           uniform 1000;
    }
    outlet
    {
        type            zeroGradient;
    }
    bottom
    {
        type            symmetryPlane;
    }
    frontAndBack
    {
        type            empty;
    }
}


// ************************************************************************* //
