/*--------------------------------*- C++ -*----------------------------------*\
| =========                 |                                                 |
| \\      /  F ield         | OpenFOAM: The Open Source CFD Toolbox           |
|  \\    /   O peration     | Version:  2412                                  |
|   \\  /    A nd           | Website:  www.openfoam.com                      |
|    \\/     M anipulation  |                                                 |
\*---------------------------------------------------------------------------*/
FoamFile
{
    version     2.0;
    format      ascii;
    arch        "LSB;label=32;scalar=64";
    class       volVectorField;
    location    "0.0025";
    object      U;
}
// * * * * * * * * * * * * * * * * * * * * * * * * * * * * * * * * * * * * * //

dimensions      [0 1 -1 0 0 0 0];

internalField   nonuniform List<vector> 
1800
(
(2.89983 -6.36628e-05 0)
(2.89949 -0.000191208 0)
(2.89917 -0.000312693 0)
(2.89887 -0.000422999 0)
(2.8986 -0.000518731 0)
(2.89837 -0.000598364 0)
(2.89819 -0.000662025 0)
(2.89805 -0.000711065 0)
(2.89794 -0.000747553 0)
(2.89786 -0.000773835 0)
(2.8978 -0.000792195 0)
(2.89776 -0.000804659 0)
(2.89773 -0.000812892 0)
(2.89772 -0.000818191 0)
(2.8977 -0.000821518 0)
(2.8977 -0.000823559 0)
(2.89769 -0.000824782 0)
(2.89769 -0.000825499 0)
(2.89769 -0.00082591 0)
(2.89769 -0.000826142 0)
(2.89769 -0.000826269 0)
(2.89769 -0.000826338 0)
(2.89769 -0.000826375 0)
(2.89769 -0.000826394 0)
(2.89769 -0.000826403 0)
(2.89769 -0.000826408 0)
(2.89769 -0.000826411 0)
(2.89769 -0.000826412 0)
(2.89769 -0.000826412 0)
(2.89769 -0.000826413 0)
(2.89769 -0.000826413 0)
(2.89769 -0.000826413 0)
(2.89769 -0.000826413 0)
(2.89769 -0.000826413 0)
(2.89769 -0.000826413 0)
(2.89769 -0.000826413 0)
(2.89769 -0.000826413 0)
(2.89769 -0.000826413 0)
(2.89769 -0.000826414 0)
(2.89769 -0.000826416 0)
(2.89769 -0.000826419 0)
(2.89769 -0.000826428 0)
(2.89769 -0.000826446 0)
(2.89769 -0.000826482 0)
(2.89769 -0.000826552 0)
(2.89769 -0.000826683 0)
(2.89769 -0.000826919 0)
(2.89768 -0.000827327 0)
(2.89768 -0.000828007 0)
(2.89768 -0.0008291 0)
(2.89767 -0.000830796 0)
(2.89766 -0.000833338 0)
(2.89765 -0.000837022 0)
(2.89763 -0.000842192 0)
(2.8976 -0.000849222 0)
(2.89756 -0.000858499 0)
(2.89752 -0.000870391 0)
(2.89746 -0.000885217 0)
(2.89739 -0.000903223 0)
(2.8973 -0.000924554 0)
(2.89982 -0.000198404 0)
(2.89946 -0.000595524 0)
(2.89911 -0.000973474 0)
(2.89878 -0.00131642 0)
(2.8985 -0.0016139 0)
(2.89826 -0.00186127 0)
(2.89807 -0.00205899 0)
(2.89791 -0.00221131 0)
(2.8978 -0.00232468 0)
(2.89771 -0.00240638 0)
(2.89765 -0.0024635 0)
(2.89761 -0.00250232 0)
(2.89758 -0.00252799 0)
(2.89756 -0.00254454 0)
(2.89755 -0.00255495 0)
(2.89754 -0.00256135 0)
(2.89754 -0.00256519 0)
(2.89754 -0.00256745 0)
(2.89754 -0.00256875 0)
(2.89754 -0.00256948 0)
(2.89753 -0.00256988 0)
(2.89753 -0.0025701 0)
(2.89753 -0.00257022 0)
(2.89753 -0.00257028 0)
(2.89753 -0.00257031 0)
(2.89753 -0.00257033 0)
(2.89753 -0.00257033 0)
(2.89753 -0.00257034 0)
(2.89753 -0.00257034 0)
(2.89753 -0.00257034 0)
(2.89753 -0.00257034 0)
(2.89753 -0.00257034 0)
(2.89753 -0.00257034 0)
(2.89753 -0.00257034 0)
(2.89753 -0.00257034 0)
(2.89753 -0.00257034 0)
(2.89753 -0.00257034 0)
(2.89753 -0.00257034 0)
(2.89753 -0.00257034 0)
(2.89753 -0.00257035 0)
(2.89753 -0.00257036 0)
(2.89753 -0.00257039 0)
(2.89753 -0.00257045 0)
(2.89753 -0.00257056 0)
(2.89753 -0.00257078 0)
(2.89753 -0.0025712 0)
(2.89753 -0.00257193 0)
(2.89753 -0.0025732 0)
(2.89753 -0.00257531 0)
(2.89752 -0.00257867 0)
(2.89752 -0.00258387 0)
(2.89751 -0.00259164 0)
(2.89749 -0.00260286 0)
(2.89747 -0.00261856 0)
(2.89745 -0.00263985 0)
(2.89741 -0.00266788 0)
(2.89736 -0.00270372 0)
(2.8973 -0.00274834 0)
(2.89722 -0.00280243 0)
(2.89714 -0.00286642 0)
(2.89979 -0.00034855 0)
(2.89938 -0.0010453 0)
(2.89898 -0.00170748 0)
(2.89862 -0.00230745 0)
(2.89829 -0.00282709 0)
(2.89803 -0.00325856 0)
(2.89781 -0.00360297 0)
(2.89764 -0.00386798 0)
(2.89751 -0.00406504 0)
(2.89742 -0.00420695 0)
(2.89735 -0.00430612 0)
(2.8973 -0.0043735 0)
(2.89727 -0.00441808 0)
(2.89725 -0.00444682 0)
(2.89724 -0.00446491 0)
(2.89723 -0.00447604 0)
(2.89723 -0.00448273 0)
(2.89722 -0.00448667 0)
(2.89722 -0.00448893 0)
(2.89722 -0.00449021 0)
(2.89722 -0.00449092 0)
(2.89722 -0.00449131 0)
(2.89722 -0.00449151 0)
(2.89722 -0.00449162 0)
(2.89722 -0.00449168 0)
(2.89722 -0.0044917 0)
(2.89722 -0.00449172 0)
(2.89722 -0.00449172 0)
(2.89722 -0.00449173 0)
(2.89722 -0.00449173 0)
(2.89722 -0.00449173 0)
(2.89722 -0.00449173 0)
(2.89722 -0.00449173 0)
(2.89722 -0.00449173 0)
(2.89722 -0.00449173 0)
(2.89722 -0.00449173 0)
(2.89722 -0.00449173 0)
(2.89722 -0.00449173 0)
(2.89722 -0.00449174 0)
(2.89722 -0.00449175 0)
(2.89722 -0.00449177 0)
(2.89722 -0.00449182 0)
(2.89722 -0.00449192 0)
(2.89722 -0.00449212 0)
(2.89722 -0.00449251 0)
(2.89722 -0.00449323 0)
(2.89722 -0.0044945 0)
(2.89722 -0.00449669 0)
(2.89721 -0.0045003 0)
(2.89721 -0.00450606 0)
(2.8972 -0.00451492 0)
(2.89719 -0.00452811 0)
(2.89718 -0.00454712 0)
(2.89716 -0.00457364 0)
(2.89713 -0.00460951 0)
(2.89709 -0.00465664 0)
(2.89704 -0.00471681 0)
(2.89697 -0.00479156 0)
(2.89689 -0.00488206 0)
(2.8968 -0.00498897 0)
(2.89975 -0.000522598 0)
(2.89926 -0.00156554 0)
(2.89878 -0.0025548 0)
(2.89835 -0.00344912 0)
(2.89797 -0.00422187 0)
(2.89766 -0.00486195 0)
(2.8974 -0.00537169 0)
(2.89721 -0.00576307 0)
(2.89706 -0.00605353 0)
(2.89695 -0.00626237 0)
(2.89688 -0.00640813 0)
(2.89683 -0.00650707 0)
(2.89679 -0.00657248 0)
(2.89677 -0.00661464 0)
(2.89675 -0.00664118 0)
(2.89675 -0.00665751 0)
(2.89674 -0.00666733 0)
(2.89674 -0.00667312 0)
(2.89674 -0.00667645 0)
(2.89673 -0.00667834 0)
(2.89673 -0.00667938 0)
(2.89673 -0.00667995 0)
(2.89673 -0.00668026 0)
(2.89673 -0.00668042 0)
(2.89673 -0.0066805 0)
(2.89673 -0.00668054 0)
(2.89673 -0.00668056 0)
(2.89673 -0.00668057 0)
(2.89673 -0.00668057 0)
(2.89673 -0.00668058 0)
(2.89673 -0.00668058 0)
(2.89673 -0.00668058 0)
(2.89673 -0.00668058 0)
(2.89673 -0.00668058 0)
(2.89673 -0.00668058 0)
(2.89673 -0.00668058 0)
(2.89673 -0.00668058 0)
(2.89673 -0.00668058 0)
(2.89673 -0.00668059 0)
(2.89673 -0.0066806 0)
(2.89673 -0.00668064 0)
(2.89673 -0.00668071 0)
(2.89673 -0.00668086 0)
(2.89673 -0.00668116 0)
(2.89673 -0.00668173 0)
(2.89673 -0.00668278 0)
(2.89673 -0.00668464 0)
(2.89673 -0.00668782 0)
(2.89673 -0.00669303 0)
(2.89672 -0.00670132 0)
(2.89671 -0.00671404 0)
(2.8967 -0.0067329 0)
(2.89669 -0.00675999 0)
(2.89666 -0.00679769 0)
(2.89663 -0.00684857 0)
(2.89659 -0.00691526 0)
(2.89653 -0.00700023 0)
(2.89646 -0.00710561 0)
(2.89638 -0.00723299 0)
(2.89628 -0.00738326 0)
(2.8997 -0.000729823 0)
(2.89909 -0.00218348 0)
(2.89851 -0.00355894 0)
(2.89798 -0.00479879 0)
(2.89752 -0.0058667 0)
(2.89714 -0.00674836 0)
(2.89684 -0.00744823 0)
(2.89661 -0.00798395 0)
(2.89643 -0.00838043 0)
(2.89631 -0.00866481 0)
(2.89622 -0.00886288 0)
(2.89616 -0.00899711 0)
(2.89612 -0.00908572 0)
(2.89609 -0.0091428 0)
(2.89608 -0.00917871 0)
(2.89606 -0.00920079 0)
(2.89606 -0.00921408 0)
(2.89606 -0.00922191 0)
(2.89605 -0.00922643 0)
(2.89605 -0.00922898 0)
(2.89605 -0.0092304 0)
(2.89605 -0.00923117 0)
(2.89605 -0.00923159 0)
(2.89605 -0.0092318 0)
(2.89605 -0.00923192 0)
(2.89605 -0.00923197 0)
(2.89605 -0.009232 0)
(2.89605 -0.00923202 0)
(2.89605 -0.00923202 0)
(2.89605 -0.00923203 0)
(2.89605 -0.00923203 0)
(2.89605 -0.00923203 0)
(2.89605 -0.00923203 0)
(2.89605 -0.00923203 0)
(2.89605 -0.00923203 0)
(2.89605 -0.00923203 0)
(2.89605 -0.00923203 0)
(2.89605 -0.00923203 0)
(2.89605 -0.00923204 0)
(2.89605 -0.00923206 0)
(2.89605 -0.00923211 0)
(2.89605 -0.00923221 0)
(2.89605 -0.00923242 0)
(2.89605 -0.00923283 0)
(2.89605 -0.0092336 0)
(2.89605 -0.00923502 0)
(2.89605 -0.00923751 0)
(2.89605 -0.00924175 0)
(2.89604 -0.00924868 0)
(2.89604 -0.00925965 0)
(2.89603 -0.00927643 0)
(2.89602 -0.00930123 0)
(2.896 -0.00933674 0)
(2.89597 -0.00938603 0)
(2.89594 -0.00945237 0)
(2.89589 -0.00953913 0)
(2.89583 -0.00964944 0)
(2.89576 -0.00978599 0)
(2.89566 -0.00995076 0)
(2.89556 -0.0101448 0)
(2.89962 -0.000980563 0)
(2.89886 -0.0029294 0)
(2.89813 -0.00476804 0)
(2.89748 -0.00641959 0)
(2.89692 -0.00783655 0)
(2.89646 -0.0090016 0)
(2.89609 -0.00992267 0)
(2.89581 -0.010625 0)
(2.8956 -0.0111429 0)
(2.89545 -0.0115132 0)
(2.89534 -0.0117704 0)
(2.89527 -0.0119443 0)
(2.89523 -0.0120589 0)
(2.8952 -0.0121326 0)
(2.89518 -0.012179 0)
(2.89517 -0.0122074 0)
(2.89516 -0.0122246 0)
(2.89515 -0.0122347 0)
(2.89515 -0.0122405 0)
(2.89515 -0.0122438 0)
(2.89515 -0.0122456 0)
(2.89515 -0.0122466 0)
(2.89515 -0.0122471 0)
(2.89515 -0.0122474 0)
(2.89515 -0.0122476 0)
(2.89515 -0.0122476 0)
(2.89515 -0.0122477 0)
(2.89515 -0.0122477 0)
(2.89515 -0.0122477 0)
(2.89515 -0.0122477 0)
(2.89515 -0.0122477 0)
(2.89515 -0.0122477 0)
(2.89515 -0.0122477 0)
(2.89515 -0.0122477 0)
(2.89515 -0.0122477 0)
(2.89515 -0.0122477 0)
(2.89515 -0.0122477 0)
(2.89515 -0.0122477 0)
(2.89515 -0.0122477 0)
(2.89515 -0.0122478 0)
(2.89515 -0.0122478 0)
(2.89515 -0.012248 0)
(2.89515 -0.0122482 0)
(2.89515 -0.0122488 0)
(2.89515 -0.0122498 0)
(2.89515 -0.0122516 0)
(2.89515 -0.0122548 0)
(2.89514 -0.0122601 0)
(2.89514 -0.0122689 0)
(2.89513 -0.0122827 0)
(2.89512 -0.0123038 0)
(2.89511 -0.0123348 0)
(2.89509 -0.0123791 0)
(2.89506 -0.0124403 0)
(2.89502 -0.0125226 0)
(2.89497 -0.0126299 0)
(2.89491 -0.012766 0)
(2.89482 -0.0129342 0)
(2.89472 -0.0131368 0)
(2.8946 -0.0133751 0)
(2.89952 -0.00128653 0)
(2.89856 -0.00383747 0)
(2.89765 -0.0062362 0)
(2.89684 -0.00838203 0)
(2.89615 -0.0102146 0)
(2.89558 -0.011714 0)
(2.89513 -0.0128937 0)
(2.89478 -0.013789 0)
(2.89453 -0.0144464 0)
(2.89435 -0.0149147 0)
(2.89423 -0.0152388 0)
(2.89414 -0.0154574 0)
(2.89409 -0.0156011 0)
(2.89405 -0.0156933 0)
(2.89403 -0.0157512 0)
(2.89402 -0.0157867 0)
(2.89401 -0.0158081 0)
(2.894 -0.0158207 0)
(2.894 -0.015828 0)
(2.894 -0.0158321 0)
(2.894 -0.0158344 0)
(2.894 -0.0158356 0)
(2.894 -0.0158363 0)
(2.894 -0.0158366 0)
(2.894 -0.0158368 0)
(2.894 -0.0158369 0)
(2.894 -0.015837 0)
(2.894 -0.015837 0)
(2.894 -0.015837 0)
(2.894 -0.015837 0)
(2.894 -0.015837 0)
(2.894 -0.015837 0)
(2.894 -0.015837 0)
(2.894 -0.015837 0)
(2.894 -0.015837 0)
(2.894 -0.015837 0)
(2.894 -0.015837 0)
(2.894 -0.015837 0)
(2.894 -0.015837 0)
(2.894 -0.0158371 0)
(2.894 -0.0158371 0)
(2.894 -0.0158373 0)
(2.894 -0.0158377 0)
(2.894 -0.0158383 0)
(2.894 -0.0158396 0)
(2.894 -0.0158418 0)
(2.89399 -0.0158457 0)
(2.89399 -0.0158523 0)
(2.89399 -0.015863 0)
(2.89398 -0.0158799 0)
(2.89397 -0.0159054 0)
(2.89395 -0.0159428 0)
(2.89393 -0.0159962 0)
(2.8939 -0.0160698 0)
(2.89386 -0.0161683 0)
(2.8938 -0.0162965 0)
(2.89373 -0.0164589 0)
(2.89364 -0.016659 0)
(2.89353 -0.0168997 0)
(2.8934 -0.0171822 0)
(2.89939 -0.00166117 0)
(2.89818 -0.00494677 0)
(2.89704 -0.00802491 0)
(2.89603 -0.0107656 0)
(2.89517 -0.0130938 0)
(2.89446 -0.014988 0)
(2.89391 -0.01647 0)
(2.8935 -0.0175887 0)
(2.8932 -0.0184061 0)
(2.89298 -0.0189857 0)
(2.89283 -0.0193854 0)
(2.89273 -0.0196539 0)
(2.89267 -0.01983 0)
(2.89263 -0.0199428 0)
(2.8926 -0.0200134 0)
(2.89258 -0.0200567 0)
(2.89257 -0.0200828 0)
(2.89257 -0.0200981 0)
(2.89257 -0.0201069 0)
(2.89256 -0.020112 0)
(2.89256 -0.0201147 0)
(2.89256 -0.0201163 0)
(2.89256 -0.0201171 0)
(2.89256 -0.0201175 0)
(2.89256 -0.0201177 0)
(2.89256 -0.0201178 0)
(2.89256 -0.0201179 0)
(2.89256 -0.0201179 0)
(2.89256 -0.0201179 0)
(2.89256 -0.020118 0)
(2.89256 -0.020118 0)
(2.89256 -0.020118 0)
(2.89256 -0.020118 0)
(2.89256 -0.020118 0)
(2.89256 -0.020118 0)
(2.89256 -0.020118 0)
(2.89256 -0.020118 0)
(2.89256 -0.020118 0)
(2.89256 -0.020118 0)
(2.89256 -0.020118 0)
(2.89256 -0.0201181 0)
(2.89256 -0.0201183 0)
(2.89256 -0.0201188 0)
(2.89256 -0.0201196 0)
(2.89256 -0.0201211 0)
(2.89256 -0.0201238 0)
(2.89256 -0.0201285 0)
(2.89255 -0.0201364 0)
(2.89255 -0.0201492 0)
(2.89254 -0.0201691 0)
(2.89253 -0.0201993 0)
(2.89251 -0.0202434 0)
(2.89249 -0.020306 0)
(2.89245 -0.0203921 0)
(2.8924 -0.0205072 0)
(2.89234 -0.0206565 0)
(2.89226 -0.0208452 0)
(2.89216 -0.0210773 0)
(2.89204 -0.0213559 0)
(2.8919 -0.0216824 0)
(2.89923 -0.00212004 0)
(2.8977 -0.0063024 0)
(2.89628 -0.0102046 0)
(2.89502 -0.0136608 0)
(2.89395 -0.0165789 0)
(2.89309 -0.018938 0)
(2.89242 -0.020772 0)
(2.89191 -0.022148 0)
(2.89155 -0.0231478 0)
(2.89129 -0.0238532 0)
(2.89112 -0.0243375 0)
(2.891 -0.0246616 0)
(2.89092 -0.0248735 0)
(2.89087 -0.0250088 0)
(2.89084 -0.0250934 0)
(2.89082 -0.0251453 0)
(2.89081 -0.0251764 0)
(2.89081 -0.0251946 0)
(2.8908 -0.0252052 0)
(2.8908 -0.0252112 0)
(2.8908 -0.0252145 0)
(2.8908 -0.0252163 0)
(2.8908 -0.0252173 0)
(2.8908 -0.0252178 0)
(2.8908 -0.0252181 0)
(2.8908 -0.0252182 0)
(2.8908 -0.0252183 0)
(2.8908 -0.0252183 0)
(2.8908 -0.0252183 0)
(2.8908 -0.0252183 0)
(2.8908 -0.0252184 0)
(2.8908 -0.0252184 0)
(2.8908 -0.0252184 0)
(2.8908 -0.0252184 0)
(2.8908 -0.0252184 0)
(2.8908 -0.0252184 0)
(2.8908 -0.0252184 0)
(2.8908 -0.0252184 0)
(2.8908 -0.0252184 0)
(2.8908 -0.0252185 0)
(2.8908 -0.0252186 0)
(2.8908 -0.0252188 0)
(2.8908 -0.0252193 0)
(2.8908 -0.0252203 0)
(2.8908 -0.0252221 0)
(2.8908 -0.0252253 0)
(2.89079 -0.0252308 0)
(2.89079 -0.0252401 0)
(2.89079 -0.025255 0)
(2.89078 -0.0252781 0)
(2.89076 -0.0253131 0)
(2.89074 -0.025364 0)
(2.89071 -0.025436 0)
(2.89067 -0.0255348 0)
(2.89062 -0.0256664 0)
(2.89055 -0.0258368 0)
(2.89046 -0.0260515 0)
(2.89035 -0.0263153 0)
(2.89022 -0.0266312 0)
(2.89007 -0.0270008 0)
(2.89903 -0.0026814 0)
(2.89711 -0.00795693 0)
(2.89533 -0.0128568 0)
(2.89377 -0.0171708 0)
(2.89245 -0.0207884 0)
(2.8914 -0.0236921 0)
(2.89059 -0.0259333 0)
(2.88998 -0.0276036 0)
(2.88955 -0.0288096 0)
(2.88924 -0.0296557 0)
(2.88903 -0.0302338 0)
(2.8889 -0.0306191 0)
(2.88881 -0.03087 0)
(2.88875 -0.0310299 0)
(2.88871 -0.0311297 0)
(2.88869 -0.0311906 0)
(2.88868 -0.0312271 0)
(2.88867 -0.0312486 0)
(2.88867 -0.031261 0)
(2.88867 -0.031268 0)
(2.88866 -0.0312719 0)
(2.88866 -0.0312741 0)
(2.88866 -0.0312752 0)
(2.88866 -0.0312758 0)
(2.88866 -0.0312761 0)
(2.88866 -0.0312763 0)
(2.88866 -0.0312764 0)
(2.88866 -0.0312764 0)
(2.88866 -0.0312764 0)
(2.88866 -0.0312764 0)
(2.88866 -0.0312764 0)
(2.88866 -0.0312764 0)
(2.88866 -0.0312764 0)
(2.88866 -0.0312764 0)
(2.88866 -0.0312764 0)
(2.88866 -0.0312765 0)
(2.88866 -0.0312765 0)
(2.88866 -0.0312765 0)
(2.88866 -0.0312765 0)
(2.88866 -0.0312766 0)
(2.88866 -0.0312767 0)
(2.88866 -0.031277 0)
(2.88866 -0.0312776 0)
(2.88866 -0.0312787 0)
(2.88866 -0.0312808 0)
(2.88866 -0.0312846 0)
(2.88866 -0.031291 0)
(2.88865 -0.0313016 0)
(2.88865 -0.0313187 0)
(2.88864 -0.0313451 0)
(2.88862 -0.0313848 0)
(2.8886 -0.0314425 0)
(2.88857 -0.0315239 0)
(2.88853 -0.0316352 0)
(2.88847 -0.0317831 0)
(2.88839 -0.0319742 0)
(2.88829 -0.0322145 0)
(2.88817 -0.0325089 0)
(2.88803 -0.0328609 0)
(2.88786 -0.0332721 0)
(2.89878 -0.00336677 0)
(2.89639 -0.00997207 0)
(2.89418 -0.0160762 0)
(2.89224 -0.0214146 0)
(2.89063 -0.0258569 0)
(2.88935 -0.0293939 0)
(2.88837 -0.0321024 0)
(2.88765 -0.0341058 0)
(2.88714 -0.0355424 0)
(2.88678 -0.0365442 0)
(2.88653 -0.037225 0)
(2.88637 -0.0376767 0)
(2.88627 -0.0379698 0)
(2.8862 -0.038156 0)
(2.88616 -0.0382718 0)
(2.88614 -0.0383425 0)
(2.88612 -0.0383848 0)
(2.88611 -0.0384096 0)
(2.88611 -0.0384239 0)
(2.88611 -0.038432 0)
(2.8861 -0.0384365 0)
(2.8861 -0.038439 0)
(2.8861 -0.0384403 0)
(2.8861 -0.038441 0)
(2.8861 -0.0384414 0)
(2.8861 -0.0384416 0)
(2.8861 -0.0384417 0)
(2.8861 -0.0384417 0)
(2.8861 -0.0384417 0)
(2.8861 -0.0384418 0)
(2.8861 -0.0384418 0)
(2.8861 -0.0384418 0)
(2.8861 -0.0384418 0)
(2.8861 -0.0384418 0)
(2.8861 -0.0384418 0)
(2.8861 -0.0384418 0)
(2.8861 -0.0384418 0)
(2.8861 -0.0384418 0)
(2.8861 -0.0384418 0)
(2.8861 -0.0384419 0)
(2.8861 -0.0384421 0)
(2.8861 -0.0384424 0)
(2.8861 -0.0384431 0)
(2.8861 -0.0384444 0)
(2.8861 -0.0384468 0)
(2.8861 -0.0384511 0)
(2.8861 -0.0384584 0)
(2.88609 -0.0384704 0)
(2.88608 -0.0384897 0)
(2.88607 -0.0385194 0)
(2.88606 -0.0385638 0)
(2.88603 -0.0386283 0)
(2.886 -0.0387188 0)
(2.88595 -0.0388423 0)
(2.88589 -0.0390059 0)
(2.8858 -0.0392169 0)
(2.8857 -0.0394815 0)
(2.88557 -0.0398052 0)
(2.88542 -0.0401915 0)
(2.88523 -0.040642 0)
(2.89848 -0.00420185 0)
(2.8955 -0.012421 0)
(2.89276 -0.0199739 0)
(2.89039 -0.0265295 0)
(2.88843 -0.0319376 0)
(2.88689 -0.0362051 0)
(2.88572 -0.0394441 0)
(2.88486 -0.0418203 0)
(2.88425 -0.0435116 0)
(2.88384 -0.0446831 0)
(2.88355 -0.0454748 0)
(2.88337 -0.0459975 0)
(2.88325 -0.0463353 0)
(2.88317 -0.0465491 0)
(2.88313 -0.0466818 0)
(2.8831 -0.0467626 0)
(2.88308 -0.0468109 0)
(2.88307 -0.0468392 0)
(2.88307 -0.0468555 0)
(2.88306 -0.0468648 0)
(2.88306 -0.0468699 0)
(2.88306 -0.0468727 0)
(2.88306 -0.0468742 0)
(2.88306 -0.046875 0)
(2.88306 -0.0468754 0)
(2.88306 -0.0468757 0)
(2.88306 -0.0468758 0)
(2.88306 -0.0468758 0)
(2.88306 -0.0468758 0)
(2.88306 -0.0468759 0)
(2.88306 -0.0468759 0)
(2.88306 -0.0468759 0)
(2.88306 -0.0468759 0)
(2.88306 -0.0468759 0)
(2.88306 -0.0468759 0)
(2.88306 -0.0468759 0)
(2.88306 -0.0468759 0)
(2.88306 -0.0468759 0)
(2.88306 -0.0468759 0)
(2.88306 -0.046876 0)
(2.88306 -0.0468762 0)
(2.88306 -0.0468766 0)
(2.88306 -0.0468774 0)
(2.88306 -0.0468789 0)
(2.88306 -0.0468816 0)
(2.88306 -0.0468864 0)
(2.88305 -0.0468946 0)
(2.88305 -0.046908 0)
(2.88304 -0.0469294 0)
(2.88303 -0.0469623 0)
(2.88301 -0.0470114 0)
(2.88298 -0.0470822 0)
(2.88295 -0.0471815 0)
(2.88289 -0.0473165 0)
(2.88282 -0.047495 0)
(2.88274 -0.0477246 0)
(2.88262 -0.048012 0)
(2.88248 -0.0483628 0)
(2.88232 -0.0487807 0)
(2.88213 -0.0492673 0)
(2.89811 -0.00521763 0)
(2.89442 -0.0153913 0)
(2.89104 -0.024681 0)
(2.88815 -0.0326749 0)
(2.88578 -0.0392056 0)
(2.88393 -0.0443072 0)
(2.88255 -0.0481418 0)
(2.88155 -0.0509296 0)
(2.88084 -0.0528978 0)
(2.88036 -0.0542516 0)
(2.88003 -0.0551607 0)
(2.87982 -0.0557579 0)
(2.87968 -0.0561422 0)
(2.8796 -0.0563846 0)
(2.87955 -0.0565346 0)
(2.87951 -0.0566257 0)
(2.8795 -0.0566801 0)
(2.87949 -0.056712 0)
(2.87948 -0.0567303 0)
(2.87948 -0.0567407 0)
(2.87947 -0.0567465 0)
(2.87947 -0.0567496 0)
(2.87947 -0.0567513 0)
(2.87947 -0.0567522 0)
(2.87947 -0.0567527 0)
(2.87947 -0.056753 0)
(2.87947 -0.0567531 0)
(2.87947 -0.0567531 0)
(2.87947 -0.0567532 0)
(2.87947 -0.0567532 0)
(2.87947 -0.0567532 0)
(2.87947 -0.0567532 0)
(2.87947 -0.0567532 0)
(2.87947 -0.0567532 0)
(2.87947 -0.0567532 0)
(2.87947 -0.0567532 0)
(2.87947 -0.0567532 0)
(2.87947 -0.0567532 0)
(2.87947 -0.0567533 0)
(2.87947 -0.0567534 0)
(2.87947 -0.0567536 0)
(2.87947 -0.0567541 0)
(2.87947 -0.0567549 0)
(2.87947 -0.0567566 0)
(2.87947 -0.0567596 0)
(2.87947 -0.056765 0)
(2.87946 -0.056774 0)
(2.87946 -0.0567888 0)
(2.87945 -0.0568122 0)
(2.87944 -0.0568481 0)
(2.87942 -0.0569015 0)
(2.87939 -0.0569783 0)
(2.87935 -0.0570857 0)
(2.87929 -0.0572313 0)
(2.87922 -0.0574234 0)
(2.87912 -0.0576698 0)
(2.879 -0.0579777 0)
(2.87886 -0.0583528 0)
(2.87868 -0.058799 0)
(2.87848 -0.0593175 0)
(2.89766 -0.00645199 0)
(2.8931 -0.018989 0)
(2.88897 -0.0303535 0)
(2.88545 -0.0400373 0)
(2.88261 -0.0478615 0)
(2.88042 -0.0539052 0)
(2.8788 -0.0583993 0)
(2.87763 -0.0616344 0)
(2.87682 -0.0638986 0)
(2.87627 -0.065444 0)
(2.8759 -0.0664752 0)
(2.87566 -0.0671489 0)
(2.87551 -0.0675804 0)
(2.87541 -0.0678517 0)
(2.87535 -0.068019 0)
(2.87532 -0.0681205 0)
(2.8753 -0.0681809 0)
(2.87529 -0.0682163 0)
(2.87528 -0.0682366 0)
(2.87527 -0.0682481 0)
(2.87527 -0.0682545 0)
(2.87527 -0.0682581 0)
(2.87527 -0.0682599 0)
(2.87527 -0.0682609 0)
(2.87527 -0.0682615 0)
(2.87527 -0.0682617 0)
(2.87527 -0.0682619 0)
(2.87527 -0.0682619 0)
(2.87527 -0.068262 0)
(2.87527 -0.068262 0)
(2.87527 -0.068262 0)
(2.87527 -0.068262 0)
(2.87527 -0.068262 0)
(2.87527 -0.068262 0)
(2.87527 -0.068262 0)
(2.87527 -0.068262 0)
(2.87527 -0.068262 0)
(2.87527 -0.068262 0)
(2.87527 -0.0682621 0)
(2.87527 -0.0682622 0)
(2.87527 -0.0682625 0)
(2.87527 -0.068263 0)
(2.87527 -0.068264 0)
(2.87527 -0.0682658 0)
(2.87527 -0.0682691 0)
(2.87527 -0.068275 0)
(2.87526 -0.0682848 0)
(2.87526 -0.0683008 0)
(2.87525 -0.0683261 0)
(2.87523 -0.0683648 0)
(2.87521 -0.0684221 0)
(2.87518 -0.0685043 0)
(2.87514 -0.0686189 0)
(2.87508 -0.0687739 0)
(2.875 -0.0689778 0)
(2.8749 -0.0692389 0)
(2.87477 -0.0695645 0)
(2.87462 -0.0699604 0)
(2.87444 -0.0704304 0)
(2.87422 -0.070976 0)
(2.8971 -0.00795185 0)
(2.8915 -0.0233437 0)
(2.88646 -0.037179 0)
(2.88222 -0.0488354 0)
(2.87884 -0.0581359 0)
(2.87627 -0.0652299 0)
(2.87438 -0.0704429 0)
(2.87304 -0.0741554 0)
(2.87211 -0.0767293 0)
(2.87149 -0.0784719 0)
(2.87108 -0.0796268 0)
(2.87081 -0.080377 0)
(2.87064 -0.0808553 0)
(2.87054 -0.0811548 0)
(2.87047 -0.0813391 0)
(2.87043 -0.0814505 0)
(2.87041 -0.0815168 0)
(2.8704 -0.0815555 0)
(2.87039 -0.0815778 0)
(2.87039 -0.0815904 0)
(2.87038 -0.0815974 0)
(2.87038 -0.0816013 0)
(2.87038 -0.0816033 0)
(2.87038 -0.0816044 0)
(2.87038 -0.081605 0)
(2.87038 -0.0816053 0)
(2.87038 -0.0816055 0)
(2.87038 -0.0816055 0)
(2.87038 -0.0816056 0)
(2.87038 -0.0816056 0)
(2.87038 -0.0816056 0)
(2.87038 -0.0816056 0)
(2.87038 -0.0816056 0)
(2.87038 -0.0816056 0)
(2.87038 -0.0816056 0)
(2.87038 -0.0816056 0)
(2.87038 -0.0816056 0)
(2.87038 -0.0816057 0)
(2.87038 -0.0816057 0)
(2.87038 -0.0816058 0)
(2.87038 -0.0816061 0)
(2.87038 -0.0816067 0)
(2.87038 -0.0816078 0)
(2.87038 -0.0816098 0)
(2.87038 -0.0816134 0)
(2.87038 -0.0816197 0)
(2.87037 -0.0816302 0)
(2.87037 -0.0816474 0)
(2.87036 -0.0816744 0)
(2.87034 -0.0817154 0)
(2.87032 -0.0817761 0)
(2.87029 -0.0818629 0)
(2.87024 -0.0819835 0)
(2.87018 -0.0821464 0)
(2.8701 -0.0823601 0)
(2.86999 -0.0826331 0)
(2.86986 -0.0829729 0)
(2.8697 -0.0833854 0)
(2.86951 -0.0838743 0)
(2.86929 -0.084441 0)
(2.89643 -0.00977638 0)
(2.88956 -0.0286167 0)
(2.88344 -0.0453846 0)
(2.87836 -0.0593276 0)
(2.87437 -0.0702943 0)
(2.87137 -0.0785421 0)
(2.8692 -0.0845241 0)
(2.86768 -0.0887351 0)
(2.86664 -0.0916252 0)
(2.86594 -0.0935652 0)
(2.86548 -0.0948416 0)
(2.86519 -0.095666 0)
(2.86501 -0.096189 0)
(2.86489 -0.0965153 0)
(2.86482 -0.0967154 0)
(2.86478 -0.0968362 0)
(2.86475 -0.0969079 0)
(2.86474 -0.0969497 0)
(2.86473 -0.0969738 0)
(2.86473 -0.0969874 0)
(2.86472 -0.096995 0)
(2.86472 -0.0969991 0)
(2.86472 -0.0970014 0)
(2.86472 -0.0970025 0)
(2.86472 -0.0970032 0)
(2.86472 -0.0970035 0)
(2.86472 -0.0970036 0)
(2.86472 -0.0970037 0)
(2.86472 -0.0970038 0)
(2.86472 -0.0970038 0)
(2.86472 -0.0970038 0)
(2.86472 -0.0970038 0)
(2.86472 -0.0970038 0)
(2.86472 -0.0970038 0)
(2.86472 -0.0970038 0)
(2.86472 -0.0970038 0)
(2.86472 -0.0970038 0)
(2.86472 -0.0970039 0)
(2.86472 -0.0970039 0)
(2.86472 -0.0970041 0)
(2.86472 -0.0970044 0)
(2.86472 -0.097005 0)
(2.86472 -0.0970061 0)
(2.86472 -0.0970083 0)
(2.86472 -0.0970121 0)
(2.86472 -0.0970188 0)
(2.86471 -0.09703 0)
(2.86471 -0.0970481 0)
(2.8647 -0.0970765 0)
(2.86468 -0.0971195 0)
(2.86466 -0.0971829 0)
(2.86462 -0.0972733 0)
(2.86457 -0.0973987 0)
(2.86451 -0.0975674 0)
(2.86443 -0.0977884 0)
(2.86432 -0.0980702 0)
(2.86418 -0.0984203 0)
(2.86402 -0.0988445 0)
(2.86382 -0.0993466 0)
(2.8636 -0.0999276 0)
(2.89561 -0.0120016 0)
(2.88721 -0.0350106 0)
(2.87981 -0.0552486 0)
(2.87376 -0.0718206 0)
(2.86908 -0.0846435 0)
(2.86562 -0.0941359 0)
(2.86316 -0.100922 0)
(2.86145 -0.10564 0)
(2.86029 -0.108843 0)
(2.85953 -0.110974 0)
(2.85903 -0.112365 0)
(2.85871 -0.113258 0)
(2.85851 -0.113822 0)
(2.85839 -0.114173 0)
(2.85831 -0.114387 0)
(2.85827 -0.114516 0)
(2.85824 -0.114593 0)
(2.85823 -0.114637 0)
(2.85822 -0.114663 0)
(2.85821 -0.114677 0)
(2.85821 -0.114685 0)
(2.85821 -0.11469 0)
(2.85821 -0.114692 0)
(2.85821 -0.114693 0)
(2.85821 -0.114694 0)
(2.85821 -0.114694 0)
(2.85821 -0.114695 0)
(2.85821 -0.114695 0)
(2.85821 -0.114695 0)
(2.85821 -0.114695 0)
(2.85821 -0.114695 0)
(2.85821 -0.114695 0)
(2.85821 -0.114695 0)
(2.85821 -0.114695 0)
(2.85821 -0.114695 0)
(2.85821 -0.114695 0)
(2.85821 -0.114695 0)
(2.85821 -0.114695 0)
(2.85821 -0.114695 0)
(2.85821 -0.114695 0)
(2.85821 -0.114695 0)
(2.85821 -0.114696 0)
(2.8582 -0.114697 0)
(2.8582 -0.1147 0)
(2.8582 -0.114704 0)
(2.8582 -0.114711 0)
(2.8582 -0.114722 0)
(2.85819 -0.114741 0)
(2.85818 -0.114771 0)
(2.85816 -0.114815 0)
(2.85814 -0.11488 0)
(2.8581 -0.114973 0)
(2.85805 -0.115102 0)
(2.85799 -0.115274 0)
(2.8579 -0.1155 0)
(2.85779 -0.115787 0)
(2.85765 -0.116143 0)
(2.85749 -0.116573 0)
(2.85729 -0.117082 0)
(2.85706 -0.11767 0)
(2.89461 -0.0147272 0)
(2.88434 -0.0427853 0)
(2.87543 -0.0671147 0)
(2.86828 -0.0866803 0)
(2.86285 -0.101538 0)
(2.85891 -0.112343 0)
(2.85614 -0.119948 0)
(2.85425 -0.125162 0)
(2.85298 -0.128663 0)
(2.85215 -0.130969 0)
(2.85161 -0.132464 0)
(2.85127 -0.133418 0)
(2.85106 -0.134017 0)
(2.85093 -0.134388 0)
(2.85085 -0.134614 0)
(2.8508 -0.13475 0)
(2.85077 -0.13483 0)
(2.85076 -0.134877 0)
(2.85075 -0.134904 0)
(2.85074 -0.134919 0)
(2.85074 -0.134928 0)
(2.85074 -0.134932 0)
(2.85074 -0.134935 0)
(2.85074 -0.134936 0)
(2.85074 -0.134937 0)
(2.85074 -0.134937 0)
(2.85074 -0.134937 0)
(2.85074 -0.134938 0)
(2.85074 -0.134938 0)
(2.85074 -0.134938 0)
(2.85074 -0.134938 0)
(2.85074 -0.134938 0)
(2.85074 -0.134938 0)
(2.85074 -0.134938 0)
(2.85074 -0.134938 0)
(2.85074 -0.134938 0)
(2.85074 -0.134938 0)
(2.85074 -0.134938 0)
(2.85074 -0.134938 0)
(2.85074 -0.134938 0)
(2.85074 -0.134938 0)
(2.85074 -0.134939 0)
(2.85074 -0.13494 0)
(2.85074 -0.134943 0)
(2.85073 -0.134947 0)
(2.85073 -0.134954 0)
(2.85073 -0.134966 0)
(2.85072 -0.134985 0)
(2.85071 -0.135015 0)
(2.85069 -0.135061 0)
(2.85067 -0.135127 0)
(2.85063 -0.135221 0)
(2.85058 -0.135351 0)
(2.85052 -0.135525 0)
(2.85043 -0.135752 0)
(2.85032 -0.13604 0)
(2.85018 -0.136397 0)
(2.85001 -0.136828 0)
(2.84982 -0.137337 0)
(2.84959 -0.137924 0)
(2.89337 -0.0180877 0)
(2.88084 -0.0522784 0)
(2.87016 -0.0814118 0)
(2.86176 -0.104344 0)
(2.85552 -0.121387 0)
(2.85108 -0.133538 0)
(2.84802 -0.141943 0)
(2.84595 -0.147623 0)
(2.84458 -0.151391 0)
(2.8437 -0.153849 0)
(2.84313 -0.15543 0)
(2.84277 -0.156432 0)
(2.84255 -0.157059 0)
(2.84241 -0.157445 0)
(2.84233 -0.15768 0)
(2.84228 -0.157821 0)
(2.84225 -0.157904 0)
(2.84223 -0.157952 0)
(2.84222 -0.15798 0)
(2.84222 -0.157996 0)
(2.84222 -0.158005 0)
(2.84221 -0.158009 0)
(2.84221 -0.158012 0)
(2.84221 -0.158013 0)
(2.84221 -0.158014 0)
(2.84221 -0.158014 0)
(2.84221 -0.158015 0)
(2.84221 -0.158015 0)
(2.84221 -0.158015 0)
(2.84221 -0.158015 0)
(2.84221 -0.158015 0)
(2.84221 -0.158015 0)
(2.84221 -0.158015 0)
(2.84221 -0.158015 0)
(2.84221 -0.158015 0)
(2.84221 -0.158015 0)
(2.84221 -0.158015 0)
(2.84221 -0.158015 0)
(2.84221 -0.158015 0)
(2.84221 -0.158015 0)
(2.84221 -0.158016 0)
(2.84221 -0.158016 0)
(2.84221 -0.158018 0)
(2.84221 -0.15802 0)
(2.84221 -0.158024 0)
(2.84221 -0.158032 0)
(2.8422 -0.158044 0)
(2.84219 -0.158063 0)
(2.84218 -0.158094 0)
(2.84217 -0.158139 0)
(2.84214 -0.158205 0)
(2.84211 -0.158299 0)
(2.84206 -0.158429 0)
(2.84199 -0.158601 0)
(2.84191 -0.158826 0)
(2.8418 -0.159112 0)
(2.84166 -0.159464 0)
(2.84149 -0.15989 0)
(2.8413 -0.160391 0)
(2.84107 -0.160969 0)
(2.89183 -0.0222694 0)
(2.87654 -0.0639377 0)
(2.86379 -0.0986794 0)
(2.854 -0.125337 0)
(2.84692 -0.144662 0)
(2.84199 -0.158139 0)
(2.83865 -0.167287 0)
(2.83643 -0.173375 0)
(2.83498 -0.177362 0)
(2.83405 -0.179938 0)
(2.83346 -0.181581 0)
(2.83309 -0.182616 0)
(2.83286 -0.18326 0)
(2.83272 -0.183656 0)
(2.83263 -0.183896 0)
(2.83258 -0.184039 0)
(2.83255 -0.184124 0)
(2.83254 -0.184173 0)
(2.83253 -0.184201 0)
(2.83252 -0.184217 0)
(2.83252 -0.184226 0)
(2.83252 -0.184231 0)
(2.83252 -0.184234 0)
(2.83252 -0.184235 0)
(2.83252 -0.184236 0)
(2.83252 -0.184236 0)
(2.83252 -0.184236 0)
(2.83252 -0.184237 0)
(2.83252 -0.184237 0)
(2.83252 -0.184237 0)
(2.83252 -0.184237 0)
(2.83252 -0.184237 0)
(2.83252 -0.184237 0)
(2.83252 -0.184237 0)
(2.83252 -0.184237 0)
(2.83252 -0.184237 0)
(2.83252 -0.184237 0)
(2.83252 -0.184237 0)
(2.83252 -0.184237 0)
(2.83252 -0.184237 0)
(2.83252 -0.184237 0)
(2.83252 -0.184238 0)
(2.83251 -0.184239 0)
(2.83251 -0.184242 0)
(2.83251 -0.184246 0)
(2.83251 -0.184254 0)
(2.83251 -0.184266 0)
(2.8325 -0.184285 0)
(2.83249 -0.184315 0)
(2.83247 -0.18436 0)
(2.83245 -0.184425 0)
(2.83241 -0.184518 0)
(2.83236 -0.184644 0)
(2.8323 -0.184813 0)
(2.83221 -0.185033 0)
(2.83211 -0.185311 0)
(2.83197 -0.185654 0)
(2.83181 -0.186067 0)
(2.83163 -0.186554 0)
(2.83141 -0.187114 0)
(2.88989 -0.02754 0)
(2.87121 -0.0783671 0)
(2.85606 -0.119601 0)
(2.84479 -0.150287 0)
(2.83685 -0.171905 0)
(2.83146 -0.186614 0)
(2.82788 -0.196398 0)
(2.82554 -0.202802 0)
(2.82404 -0.206943 0)
(2.82308 -0.209591 0)
(2.82247 -0.211267 0)
(2.8221 -0.212316 0)
(2.82187 -0.212966 0)
(2.82172 -0.213364 0)
(2.82164 -0.213604 0)
(2.82159 -0.213748 0)
(2.82156 -0.213832 0)
(2.82154 -0.213881 0)
(2.82153 -0.21391 0)
(2.82153 -0.213925 0)
(2.82153 -0.213934 0)
(2.82152 -0.213939 0)
(2.82152 -0.213942 0)
(2.82152 -0.213943 0)
(2.82152 -0.213944 0)
(2.82152 -0.213944 0)
(2.82152 -0.213945 0)
(2.82152 -0.213945 0)
(2.82152 -0.213945 0)
(2.82152 -0.213945 0)
(2.82152 -0.213945 0)
(2.82152 -0.213945 0)
(2.82152 -0.213945 0)
(2.82152 -0.213945 0)
(2.82152 -0.213945 0)
(2.82152 -0.213945 0)
(2.82152 -0.213945 0)
(2.82152 -0.213945 0)
(2.82152 -0.213945 0)
(2.82152 -0.213945 0)
(2.82152 -0.213945 0)
(2.82152 -0.213946 0)
(2.82152 -0.213948 0)
(2.82152 -0.21395 0)
(2.82152 -0.213954 0)
(2.82152 -0.213961 0)
(2.82151 -0.213973 0)
(2.8215 -0.213992 0)
(2.82149 -0.214021 0)
(2.82148 -0.214065 0)
(2.82145 -0.214128 0)
(2.82142 -0.214217 0)
(2.82137 -0.214339 0)
(2.82131 -0.214502 0)
(2.82123 -0.214713 0)
(2.82113 -0.214979 0)
(2.821 -0.215307 0)
(2.82085 -0.215702 0)
(2.82067 -0.216167 0)
(2.82046 -0.216701 0)
(2.8874 -0.0342995 0)
(2.86456 -0.0963973 0)
(2.84667 -0.145045 0)
(2.83383 -0.179942 0)
(2.82508 -0.203731 0)
(2.8193 -0.219481 0)
(2.81555 -0.229732 0)
(2.81314 -0.236329 0)
(2.8116 -0.240537 0)
(2.81064 -0.243201 0)
(2.81003 -0.244874 0)
(2.80966 -0.245915 0)
(2.80943 -0.246556 0)
(2.80929 -0.246948 0)
(2.80921 -0.247184 0)
(2.80916 -0.247325 0)