/*--------------------------------*- C++ -*----------------------------------*\
| =========                 |                                                 |
| \\      /  F ield         | OpenFOAM: The Open Source CFD Toolbox           |
|  \\    /   O peration     | Version:  2412                                  |
|   \\  /    A nd           | Website:  www.openfoam.com                      |
|    \\/     M anipulation  |                                                 |
\*---------------------------------------------------------------------------*/
FoamFile
{
    version     2.0;
    format      ascii;
    arch        "LSB;label=32;scalar=64";
    class       volVectorField;
    location    "0.0025";
    object      U;
}
// * * * * * * * * * * * * * * * * * * * * * * * * * * * * * * * * * * * * * //

dimensions      [0 1 -1 0 0 0 0];

internalField   nonuniform List<vector> 
1800
(
(2.9 -1.65137e-06 0)
(2.89999 -5.29874e-06 0)
(2.89999 -8.8994e-06 0)
(2.89999 -1.21247e-05 0)
(2.89998 -1.47742e-05 0)
(2.89998 -1.67873e-05 0)
(2.89998 -1.82119e-05 0)
(2.89998 -1.91565e-05 0)
(2.89998 -1.97465e-05 0)
(2.89998 -2.00952e-05 0)
(2.89998 -2.02909e-05 0)
(2.89998 -2.03957e-05 0)
(2.89998 -2.04493e-05 0)
(2.89998 -2.04756e-05 0)
(2.89998 -2.0488e-05 0)
(2.89998 -2.04936e-05 0)
(2.89998 -2.04961e-05 0)
(2.89998 -2.04971e-05 0)
(2.89998 -2.04976e-05 0)
(2.89998 -2.04977e-05 0)
(2.89998 -2.04978e-05 0)
(2.89998 -2.04978e-05 0)
(2.89998 -2.04978e-05 0)
(2.89998 -2.04978e-05 0)
(2.89998 -2.04978e-05 0)
(2.89998 -2.04978e-05 0)
(2.89998 -2.04978e-05 0)
(2.89998 -2.04978e-05 0)
(2.89998 -2.04978e-05 0)
(2.89998 -2.04978e-05 0)
(2.89998 -2.04978e-05 0)
(2.89998 -2.04978e-05 0)
(2.89998 -2.04978e-05 0)
(2.89998 -2.04978e-05 0)
(2.89998 -2.04978e-05 0)
(2.89998 -2.04978e-05 0)
(2.89998 -2.04978e-05 0)
(2.89998 -2.04978e-05 0)
(2.89998 -2.04978e-05 0)
(2.89998 -2.04978e-05 0)
(2.89998 -2.04978e-05 0)
(2.89998 -2.04978e-05 0)
(2.89998 -2.04978e-05 0)
(2.89998 -2.04978e-05 0)
(2.89998 -2.04978e-05 0)
(2.89998 -2.04978e-05 0)
(2.89998 -2.04979e-05 0)
(2.89998 -2.04982e-05 0)
(2.89998 -2.04993e-05 0)
(2.89998 -2.05029e-05 0)
(2.89998 -2.05134e-05 0)
(2.89998 -2.05411e-05 0)
(2.89998 -2.06077e-05 0)
(2.89998 -2.07539e-05 0)
(2.89998 -2.1048e-05 0)
(2.89997 -2.15932e-05 0)
(2.89997 -2.25295e-05 0)
(2.89997 -2.4027e-05 0)
(2.89997 -2.62695e-05 0)
(2.89996 -2.94324e-05 0)
(2.9 -5.97774e-06 0)
(2.89999 -1.90607e-05 0)
(2.89999 -3.18991e-05 0)
(2.89998 -4.33555e-05 0)
(2.89998 -5.27468e-05 0)
(2.89997 -5.98769e-05 0)
(2.89997 -6.49248e-05 0)
(2.89997 -6.8277e-05 0)
(2.89997 -7.03757e-05 0)
(2.89997 -7.162e-05 0)
(2.89997 -7.23213e-05 0)
(2.89997 -7.26983e-05 0)
(2.89997 -7.28923e-05 0)
(2.89997 -7.2988e-05 0)
(2.89997 -7.30335e-05 0)
(2.89997 -7.30542e-05 0)
(2.89997 -7.30634e-05 0)
(2.89997 -7.30673e-05 0)
(2.89997 -7.30689e-05 0)
(2.89997 -7.30696e-05 0)
(2.89997 -7.30699e-05 0)
(2.89997 -7.307e-05 0)
(2.89997 -7.307e-05 0)
(2.89997 -7.307e-05 0)
(2.89997 -7.307e-05 0)
(2.89997 -7.307e-05 0)
(2.89997 -7.307e-05 0)
(2.89997 -7.307e-05 0)
(2.89997 -7.307e-05 0)
(2.89997 -7.307e-05 0)
(2.89997 -7.307e-05 0)
(2.89997 -7.307e-05 0)
(2.89997 -7.307e-05 0)
(2.89997 -7.307e-05 0)
(2.89997 -7.307e-05 0)
(2.89997 -7.307e-05 0)
(2.89997 -7.307e-05 0)
(2.89997 -7.307e-05 0)
(2.89997 -7.307e-05 0)
(2.89997 -7.307e-05 0)
(2.89997 -7.307e-05 0)
(2.89997 -7.307e-05 0)
(2.89997 -7.307e-05 0)
(2.89997 -7.307e-05 0)
(2.89997 -7.307e-05 0)
(2.89997 -7.30701e-05 0)
(2.89997 -7.30704e-05 0)
(2.89997 -7.30717e-05 0)
(2.89997 -7.30763e-05 0)
(2.89997 -7.30906e-05 0)
(2.89997 -7.31313e-05 0)
(2.89997 -7.32359e-05 0)
(2.89997 -7.34808e-05 0)
(2.89997 -7.40059e-05 0)
(2.89997 -7.50415e-05 0)
(2.89997 -7.69283e-05 0)
(2.89997 -8.01199e-05 0)
(2.89996 -8.51578e-05 0)
(2.89996 -9.26168e-05 0)
(2.89995 -0.000103033 0)
(2.9 -1.25478e-05 0)
(2.89999 -3.97211e-05 0)
(2.89998 -6.6178e-05 0)
(2.89997 -8.96453e-05 0)
(2.89997 -0.000108794 0)
(2.89996 -0.000123282 0)
(2.89996 -0.000133515 0)
(2.89996 -0.000140301 0)
(2.89995 -0.000144547 0)
(2.89995 -0.000147064 0)
(2.89995 -0.000148485 0)
(2.89995 -0.00014925 0)
(2.89995 -0.000149644 0)
(2.89995 -0.00014984 0)
(2.89995 -0.000149933 0)
(2.89995 -0.000149975 0)
(2.89995 -0.000149994 0)
(2.89995 -0.000150002 0)
(2.89995 -0.000150006 0)
(2.89995 -0.000150007 0)
(2.89995 -0.000150008 0)
(2.89995 -0.000150008 0)
(2.89995 -0.000150008 0)
(2.89995 -0.000150008 0)
(2.89995 -0.000150008 0)
(2.89995 -0.000150008 0)
(2.89995 -0.000150008 0)
(2.89995 -0.000150008 0)
(2.89995 -0.000150008 0)
(2.89995 -0.000150008 0)
(2.89995 -0.000150008 0)
(2.89995 -0.000150008 0)
(2.89995 -0.000150008 0)
(2.89995 -0.000150008 0)
(2.89995 -0.000150008 0)
(2.89995 -0.000150008 0)
(2.89995 -0.000150008 0)
(2.89995 -0.000150008 0)
(2.89995 -0.000150008 0)
(2.89995 -0.000150008 0)
(2.89995 -0.000150008 0)
(2.89995 -0.000150008 0)
(2.89995 -0.000150008 0)
(2.89995 -0.000150008 0)
(2.89995 -0.000150008 0)
(2.89995 -0.000150008 0)
(2.89995 -0.000150009 0)
(2.89995 -0.000150012 0)
(2.89995 -0.000150023 0)
(2.89995 -0.000150055 0)
(2.89995 -0.000150143 0)
(2.89995 -0.000150365 0)
(2.89995 -0.000150873 0)
(2.89995 -0.000151938 0)
(2.89995 -0.000154001 0)
(2.89995 -0.000157698 0)
(2.89995 -0.000163863 0)
(2.89994 -0.00017347 0)
(2.89994 -0.000187535 0)
(2.89993 -0.000206981 0)
(2.89999 -2.30763e-05 0)
(2.89998 -7.24719e-05 0)
(2.89996 -0.00012013 0)
(2.89995 -0.00016209 0)
(2.89994 -0.00019612 0)
(2.89993 -0.000221738 0)
(2.89993 -0.000239759 0)
(2.89993 -0.000251673 0)
(2.89992 -0.000259112 0)
(2.89992 -0.000263518 0)
(2.89992 -0.000266003 0)
(2.89992 -0.000267341 0)
(2.89992 -0.000268032 0)
(2.89992 -0.000268375 0)
(2.89992 -0.000268538 0)
(2.89992 -0.000268613 0)
(2.89992 -0.000268647 0)
(2.89992 -0.000268661 0)
(2.89992 -0.000268667 0)
(2.89992 -0.00026867 0)
(2.89992 -0.000268671 0)
(2.89992 -0.000268671 0)
(2.89992 -0.000268671 0)
(2.89992 -0.000268671 0)
(2.89992 -0.000268671 0)
(2.89992 -0.000268671 0)
(2.89992 -0.000268671 0)
(2.89992 -0.000268671 0)
(2.89992 -0.000268671 0)
(2.89992 -0.000268671 0)
(2.89992 -0.000268671 0)
(2.89992 -0.000268671 0)
(2.89992 -0.000268671 0)
(2.89992 -0.000268671 0)
(2.89992 -0.000268671 0)
(2.89992 -0.000268671 0)
(2.89992 -0.000268671 0)
(2.89992 -0.000268671 0)
(2.89992 -0.000268671 0)
(2.89992 -0.000268671 0)
(2.89992 -0.000268671 0)
(2.89992 -0.000268671 0)
(2.89992 -0.000268671 0)
(2.89992 -0.000268671 0)
(2.89992 -0.000268671 0)
(2.89992 -0.000268672 0)
(2.89992 -0.000268673 0)
(2.89992 -0.00026868 0)
(2.89992 -0.000268701 0)
(2.89992 -0.000268763 0)
(2.89992 -0.000268929 0)
(2.89992 -0.000269334 0)
(2.89992 -0.000270239 0)
(2.89992 -0.000272099 0)
(2.89992 -0.000275632 0)
(2.89992 -0.000281859 0)
(2.89991 -0.000292089 0)
(2.89991 -0.000307821 0)
(2.8999 -0.000330579 0)
(2.89989 -0.000361708 0)
(2.89999 -4.00276e-05 0)
(2.89996 -0.000124704 0)
(2.89994 -0.000205622 0)
(2.89992 -0.000276288 0)
(2.8999 -0.000333196 0)
(2.89989 -0.000375782 0)
(2.89988 -0.000405589 0)
(2.89988 -0.000425215 0)
(2.89987 -0.000437431 0)
(2.89987 -0.00044465 0)
(2.89987 -0.000448716 0)
(2.89987 -0.000450905 0)
(2.89987 -0.000452035 0)
(2.89987 -0.000452595 0)
(2.89987 -0.000452863 0)
(2.89987 -0.000452987 0)
(2.89987 -0.000453042 0)
(2.89987 -0.000453066 0)
(2.89987 -0.000453076 0)
(2.89987 -0.00045308 0)
(2.89987 -0.000453081 0)
(2.89987 -0.000453082 0)
(2.89987 -0.000453082 0)
(2.89987 -0.000453082 0)
(2.89987 -0.000453082 0)
(2.89987 -0.000453082 0)
(2.89987 -0.000453082 0)
(2.89987 -0.000453082 0)
(2.89987 -0.000453082 0)
(2.89987 -0.000453082 0)
(2.89987 -0.000453082 0)
(2.89987 -0.000453082 0)
(2.89987 -0.000453082 0)
(2.89987 -0.000453082 0)
(2.89987 -0.000453082 0)
(2.89987 -0.000453082 0)
(2.89987 -0.000453082 0)
(2.89987 -0.000453082 0)
(2.89987 -0.000453082 0)
(2.89987 -0.000453082 0)
(2.89987 -0.000453082 0)
(2.89987 -0.000453082 0)
(2.89987 -0.000453082 0)
(2.89987 -0.000453082 0)
(2.89987 -0.000453083 0)
(2.89987 -0.000453083 0)
(2.89987 -0.000453087 0)
(2.89987 -0.0004531 0)
(2.89987 -0.000453139 0)
(2.89987 -0.00045325 0)
(2.89987 -0.000453539 0)
(2.89987 -0.000454226 0)
(2.89987 -0.000455726 0)
(2.89987 -0.000458746 0)
(2.89986 -0.000464378 0)
(2.89986 -0.00047414 0)
(2.89986 -0.000489939 0)
(2.89985 -0.000513911 0)
(2.89984 -0.000548175 0)
(2.89982 -0.000594531 0)
(2.89998 -6.69272e-05 0)
(2.89994 -0.000206898 0)
(2.8999 -0.000339376 0)
(2.89986 -0.000454093 0)
(2.89984 -0.000545782 0)
(2.89982 -0.000613941 0)
(2.8998 -0.000661378 0)
(2.89979 -0.000692463 0)
(2.89979 -0.000711738 0)
(2.89978 -0.000723097 0)
(2.89978 -0.00072948 0)
(2.89978 -0.000732913 0)
(2.89978 -0.000734685 0)
(2.89978 -0.000735564 0)
(2.89978 -0.000735985 0)
(2.89978 -0.000736179 0)
(2.89978 -0.000736266 0)
(2.89978 -0.000736303 0)
(2.89978 -0.000736319 0)
(2.89978 -0.000736326 0)
(2.89978 -0.000736328 0)
(2.89978 -0.000736329 0)
(2.89978 -0.00073633 0)
(2.89978 -0.00073633 0)
(2.89978 -0.00073633 0)
(2.89978 -0.00073633 0)
(2.89978 -0.00073633 0)
(2.89978 -0.00073633 0)
(2.89978 -0.00073633 0)
(2.89978 -0.00073633 0)
(2.89978 -0.00073633 0)
(2.89978 -0.00073633 0)
(2.89978 -0.00073633 0)
(2.89978 -0.00073633 0)
(2.89978 -0.00073633 0)
(2.89978 -0.00073633 0)
(2.89978 -0.00073633 0)
(2.89978 -0.00073633 0)
(2.89978 -0.00073633 0)
(2.89978 -0.00073633 0)
(2.89978 -0.00073633 0)
(2.89978 -0.00073633 0)
(2.89978 -0.00073633 0)
(2.89978 -0.00073633 0)
(2.89978 -0.00073633 0)
(2.89978 -0.000736332 0)
(2.89978 -0.000736339 0)
(2.89978 -0.000736362 0)
(2.89978 -0.00073643 0)
(2.89978 -0.00073662 0)
(2.89978 -0.000737099 0)
(2.89978 -0.000738208 0)
(2.89978 -0.000740578 0)
(2.89978 -0.000745255 0)
(2.89978 -0.000753821 0)
(2.89977 -0.000768432 0)
(2.89976 -0.000791737 0)
(2.89975 -0.00082664 0)
(2.89974 -0.000875943 0)
(2.89971 -0.000941931 0)
(2.89997 -0.000108739 0)
(2.8999 -0.000333706 0)
(2.89983 -0.00054462 0)
(2.89978 -0.000725686 0)
(2.89973 -0.000869271 0)
(2.8997 -0.000975254 0)
(2.89968 -0.00104856 0)
(2.89967 -0.00109634 0)
(2.89966 -0.00112584 0)
(2.89965 -0.00114317 0)
(2.89965 -0.00115288 0)
(2.89965 -0.00115809 0)
(2.89965 -0.00116078 0)
(2.89965 -0.00116212 0)
(2.89965 -0.00116276 0)
(2.89965 -0.00116305 0)
(2.89965 -0.00116318 0)
(2.89965 -0.00116324 0)
(2.89965 -0.00116327 0)
(2.89965 -0.00116328 0)
(2.89965 -0.00116328 0)
(2.89965 -0.00116328 0)
(2.89965 -0.00116328 0)
(2.89965 -0.00116328 0)
(2.89965 -0.00116328 0)
(2.89965 -0.00116328 0)
(2.89965 -0.00116328 0)
(2.89965 -0.00116328 0)
(2.89965 -0.00116328 0)
(2.89965 -0.00116328 0)
(2.89965 -0.00116328 0)
(2.89965 -0.00116328 0)
(2.89965 -0.00116328 0)
(2.89965 -0.00116328 0)
(2.89965 -0.00116328 0)
(2.89965 -0.00116328 0)
(2.89965 -0.00116328 0)
(2.89965 -0.00116328 0)
(2.89965 -0.00116328 0)
(2.89965 -0.00116328 0)
(2.89965 -0.00116328 0)
(2.89965 -0.00116328 0)
(2.89965 -0.00116328 0)
(2.89965 -0.00116328 0)
(2.89965 -0.00116328 0)
(2.89965 -0.00116329 0)
(2.89965 -0.0011633 0)
(2.89965 -0.00116334 0)
(2.89965 -0.00116345 0)
(2.89965 -0.00116376 0)
(2.89965 -0.00116452 0)
(2.89965 -0.00116624 0)
(2.89965 -0.00116984 0)
(2.89964 -0.00117682 0)
(2.89964 -0.00118937 0)
(2.89963 -0.00121047 0)
(2.89962 -0.00124364 0)
(2.89961 -0.00129272 0)
(2.89958 -0.00136126 0)
(2.89955 -0.00145206 0)
(2.89995 -0.000172322 0)
(2.89984 -0.000525228 0)
(2.89973 -0.00085303 0)
(2.89965 -0.00113199 0)
(2.89958 -0.00135139 0)
(2.89953 -0.00151213 0)
(2.8995 -0.00162256 0)
(2.89947 -0.00169413 0)
(2.89946 -0.0017381 0)
(2.89945 -0.00176383 0)
(2.89945 -0.00177822 0)
(2.89945 -0.00178593 0)
(2.89945 -0.0017899 0)
(2.89945 -0.00179186 0)
(2.89945 -0.00179281 0)
(2.89944 -0.00179325 0)
(2.89944 -0.00179344 0)
(2.89944 -0.00179353 0)
(2.89944 -0.00179356 0)
(2.89944 -0.00179358 0)
(2.89944 -0.00179358 0)
(2.89944 -0.00179359 0)
(2.89944 -0.00179359 0)
(2.89944 -0.00179359 0)
(2.89944 -0.00179359 0)
(2.89944 -0.00179359 0)
(2.89944 -0.00179359 0)
(2.89944 -0.00179359 0)
(2.89944 -0.00179359 0)
(2.89944 -0.00179359 0)
(2.89944 -0.00179359 0)
(2.89944 -0.00179359 0)
(2.89944 -0.00179359 0)
(2.89944 -0.00179359 0)
(2.89944 -0.00179359 0)
(2.89944 -0.00179359 0)
(2.89944 -0.00179359 0)
(2.89944 -0.00179359 0)
(2.89944 -0.00179359 0)
(2.89944 -0.00179359 0)
(2.89944 -0.00179359 0)
(2.89944 -0.00179359 0)
(2.89944 -0.00179359 0)
(2.89944 -0.00179359 0)
(2.89944 -0.00179359 0)
(2.89944 -0.00179359 0)
(2.89944 -0.00179362 0)
(2.89944 -0.00179368 0)
(2.89944 -0.00179387 0)
(2.89944 -0.00179435 0)
(2.89944 -0.00179551 0)
(2.89944 -0.00179809 0)
(2.89944 -0.00180337 0)
(2.89944 -0.00181343 0)
(2.89943 -0.00183125 0)
(2.89942 -0.00186075 0)
(2.89941 -0.00190656 0)
(2.89939 -0.00197352 0)
(2.89935 -0.00206605 0)
(2.89931 -0.00218742 0)
(2.89992 -0.000266972 0)
(2.89974 -0.000808542 0)
(2.89958 -0.00130701 0)
(2.89945 -0.00172743 0)
(2.89935 -0.00205526 0)
(2.89927 -0.00229352 0)
(2.89922 -0.00245605 0)
(2.89919 -0.00256072 0)
(2.89917 -0.00262471 0)
(2.89916 -0.00266199 0)
(2.89915 -0.00268276 0)
(2.89915 -0.00269387 0)
(2.89915 -0.00269958 0)
(2.89915 -0.00270241 0)
(2.89915 -0.00270377 0)
(2.89915 -0.0027044 0)
(2.89915 -0.00270468 0)
(2.89915 -0.00270481 0)
(2.89915 -0.00270486 0)
(2.89915 -0.00270488 0)
(2.89915 -0.00270489 0)
(2.89915 -0.00270489 0)
(2.89915 -0.00270489 0)
(2.89915 -0.00270489 0)
(2.89915 -0.00270489 0)
(2.89915 -0.00270489 0)
(2.89915 -0.00270489 0)
(2.89915 -0.00270489 0)
(2.89915 -0.00270489 0)
(2.89915 -0.00270489 0)
(2.89915 -0.00270489 0)
(2.89915 -0.00270489 0)
(2.89915 -0.00270489 0)
(2.89915 -0.00270489 0)
(2.89915 -0.00270489 0)
(2.89915 -0.00270489 0)
(2.89915 -0.00270489 0)
(2.89915 -0.00270489 0)
(2.89915 -0.00270489 0)
(2.89915 -0.00270489 0)
(2.89915 -0.00270489 0)
(2.89915 -0.00270489 0)
(2.89915 -0.00270489 0)
(2.89915 -0.00270489 0)
(2.89915 -0.0027049 0)
(2.89915 -0.00270491 0)
(2.89915 -0.00270494 0)
(2.89915 -0.00270504 0)
(2.89915 -0.00270533 0)
(2.89915 -0.00270606 0)
(2.89914 -0.00270778 0)
(2.89914 -0.00271151 0)
(2.89914 -0.00271902 0)
(2.89914 -0.00273308 0)
(2.89913 -0.00275762 0)
(2.89912 -0.0027977 0)
(2.89909 -0.00285919 0)
(2.89906 -0.00294808 0)
(2.89902 -0.00306969 0)
(2.89896 -0.00322775 0)
(2.89987 -0.00040508 0)
(2.8996 -0.00121951 0)
(2.89936 -0.00196235 0)
(2.89916 -0.00258311 0)
(2.89901 -0.00306281 0)
(2.8989 -0.00340847 0)
(2.89882 -0.00364243 0)
(2.89877 -0.00379211 0)
(2.89875 -0.00388309 0)
(2.89873 -0.00393584 0)
(2.89872 -0.00396514 0)
(2.89872 -0.00398077 0)
(2.89872 -0.00398879 0)
(2.89871 -0.00399277 0)
(2.89871 -0.00399467 0)
(2.89871 -0.00399555 0)
(2.89871 -0.00399595 0)
(2.89871 -0.00399612 0)
(2.89871 -0.0039962 0)
(2.89871 -0.00399623 0)
(2.89871 -0.00399624 0)
(2.89871 -0.00399625 0)
(2.89871 -0.00399625 0)
(2.89871 -0.00399625 0)
(2.89871 -0.00399625 0)
(2.89871 -0.00399625 0)
(2.89871 -0.00399625 0)
(2.89871 -0.00399625 0)
(2.89871 -0.00399625 0)
(2.89871 -0.00399625 0)
(2.89871 -0.00399625 0)
(2.89871 -0.00399625 0)
(2.89871 -0.00399625 0)
(2.89871 -0.00399625 0)
(2.89871 -0.00399625 0)
(2.89871 -0.00399625 0)
(2.89871 -0.00399625 0)
(2.89871 -0.00399625 0)
(2.89871 -0.00399625 0)
(2.89871 -0.00399625 0)
(2.89871 -0.00399625 0)
(2.89871 -0.00399625 0)
(2.89871 -0.00399625 0)
(2.89871 -0.00399625 0)
(2.89871 -0.00399626 0)
(2.89871 -0.00399627 0)
(2.89871 -0.00399633 0)
(2.89871 -0.00399648 0)
(2.89871 -0.00399691 0)
(2.89871 -0.00399798 0)
(2.89871 -0.00400043 0)
(2.89871 -0.00400567 0)
(2.89871 -0.00401602 0)
(2.8987 -0.00403511 0)
(2.89869 -0.00406796 0)
(2.89867 -0.00412095 0)
(2.89864 -0.00420131 0)
(2.8986 -0.0043163 0)
(2.89855 -0.00447214 0)
(2.89847 -0.00467299 0)
(2.8998 -0.000602915 0)
(2.8994 -0.00180497 0)
(2.89904 -0.00289135 0)
(2.89875 -0.00379046 0)
(2.89852 -0.00447855 0)
(2.89836 -0.00496984 0)
(2.89826 -0.0052996 0)
(2.89819 -0.00550903 0)
(2.89815 -0.00563553 0)
(2.89813 -0.00570852 0)
(2.89811 -0.0057489 0)
(2.89811 -0.00577037 0)
(2.8981 -0.00578138 0)
(2.8981 -0.00578683 0)
(2.8981 -0.00578944 0)
(2.8981 -0.00579065 0)
(2.8981 -0.00579119 0)
(2.8981 -0.00579143 0)
(2.8981 -0.00579153 0)
(2.8981 -0.00579158 0)
(2.8981 -0.00579159 0)
(2.8981 -0.0057916 0)
(2.8981 -0.0057916 0)
(2.8981 -0.0057916 0)
(2.8981 -0.0057916 0)
(2.8981 -0.0057916 0)
(2.8981 -0.0057916 0)
(2.8981 -0.0057916 0)
(2.8981 -0.0057916 0)
(2.8981 -0.0057916 0)
(2.8981 -0.0057916 0)
(2.8981 -0.0057916 0)
(2.8981 -0.0057916 0)
(2.8981 -0.0057916 0)
(2.8981 -0.0057916 0)
(2.8981 -0.0057916 0)
(2.8981 -0.0057916 0)
(2.8981 -0.0057916 0)
(2.8981 -0.0057916 0)
(2.8981 -0.0057916 0)
(2.8981 -0.0057916 0)
(2.8981 -0.0057916 0)
(2.8981 -0.0057916 0)
(2.8981 -0.00579161 0)
(2.8981 -0.00579161 0)
(2.8981 -0.00579164 0)
(2.8981 -0.00579172 0)
(2.8981 -0.00579195 0)
(2.8981 -0.00579257 0)
(2.8981 -0.00579408 0)
(2.8981 -0.00579748 0)
(2.8981 -0.0058046 0)
(2.89809 -0.00581847 0)
(2.89809 -0.00584367 0)
(2.89807 -0.00588647 0)
(2.89805 -0.0059547 0)
(2.89801 -0.00605708 0)
(2.89796 -0.00620218 0)
(2.89789 -0.00639712 0)
(2.89779 -0.00664638 0)
(2.8997 -0.000881612 0)
(2.89912 -0.00262533 0)
(2.89859 -0.00418652 0)
(2.89817 -0.00546537 0)
(2.89784 -0.0064339 0)
(2.89762 -0.00711852 0)
(2.89747 -0.00757389 0)
(2.89738 -0.00786077 0)
(2.89732 -0.0080329 0)
(2.89729 -0.00813169 0)
(2.89727 -0.00818609 0)
(2.89726 -0.00821494 0)
(2.89726 -0.0082297 0)
(2.89726 -0.00823699 0)
(2.89726 -0.00824049 0)
(2.89726 -0.00824211 0)
(2.89726 -0.00824284 0)
(2.89726 -0.00824316 0)
(2.89726 -0.0082433 0)
(2.89726 -0.00824335 0)
(2.89726 -0.00824338 0)
(2.89726 -0.00824339 0)
(2.89726 -0.00824339 0)
(2.89726 -0.00824339 0)
(2.89726 -0.00824339 0)
(2.89726 -0.00824339 0)
(2.89726 -0.00824339 0)
(2.89726 -0.00824339 0)
(2.89726 -0.00824339 0)
(2.89726 -0.00824339 0)
(2.89726 -0.00824339 0)
(2.89726 -0.00824339 0)
(2.89726 -0.00824339 0)
(2.89726 -0.00824339 0)
(2.89726 -0.00824339 0)
(2.89726 -0.00824339 0)
(2.89726 -0.00824339 0)
(2.89726 -0.00824339 0)
(2.89726 -0.00824339 0)
(2.89726 -0.00824339 0)
(2.89726 -0.00824339 0)
(2.89726 -0.00824339 0)
(2.89726 -0.00824339 0)
(2.89726 -0.0082434 0)
(2.89726 -0.00824341 0)
(2.89726 -0.00824345 0)
(2.89726 -0.00824356 0)
(2.89725 -0.0082439 0)
(2.89725 -0.00824476 0)
(2.89725 -0.00824682 0)
(2.89725 -0.00825139 0)
(2.89725 -0.00826081 0)
(2.89724 -0.00827887 0)
(2.89723 -0.00831124 0)
(2.89721 -0.00836557 0)
(2.89718 -0.00845122 0)
(2.89714 -0.00857847 0)
(2.89707 -0.00875722 0)
(2.89698 -0.00899543 0)
(2.89687 -0.00929777 0)
(2.89957 -0.00126842 0)
(2.89872 -0.003758 0)
(2.89797 -0.00596518 0)
(2.89736 -0.0077532 0)
(2.89691 -0.00909194 0)
(2.8966 -0.0100279 0)
(2.89639 -0.0106443 0)
(2.89626 -0.0110293 0)
(2.89619 -0.0112586 0)
(2.89615 -0.0113894 0)
(2.89613 -0.0114611 0)
(2.89611 -0.011499 0)
(2.89611 -0.0115183 0)
(2.89611 -0.0115279 0)
(2.8961 -0.0115324 0)
(2.8961 -0.0115346 0)
(2.8961 -0.0115355 0)
(2.8961 -0.0115359 0)
(2.8961 -0.0115361 0)
(2.8961 -0.0115362 0)
(2.8961 -0.0115362 0)
(2.8961 -0.0115362 0)
(2.8961 -0.0115362 0)
(2.8961 -0.0115362 0)
(2.8961 -0.0115362 0)
(2.8961 -0.0115362 0)
(2.8961 -0.0115362 0)
(2.8961 -0.0115362 0)
(2.8961 -0.0115362 0)
(2.8961 -0.0115362 0)
(2.8961 -0.0115362 0)
(2.8961 -0.0115362 0)
(2.8961 -0.0115362 0)
(2.8961 -0.0115362 0)
(2.8961 -0.0115362 0)
(2.8961 -0.0115362 0)
(2.8961 -0.0115362 0)
(2.8961 -0.0115362 0)
(2.8961 -0.0115362 0)
(2.8961 -0.0115362 0)
(2.8961 -0.0115362 0)
(2.8961 -0.0115362 0)
(2.8961 -0.0115362 0)
(2.8961 -0.0115362 0)
(2.8961 -0.0115363 0)
(2.8961 -0.0115363 0)
(2.8961 -0.0115365 0)
(2.8961 -0.0115369 0)
(2.8961 -0.0115381 0)
(2.8961 -0.0115408 0)
(2.8961 -0.0115468 0)
(2.8961 -0.0115589 0)
(2.89609 -0.0115818 0)
(2.89607 -0.0116223 0)
(2.89605 -0.0116895 0)
(2.89601 -0.0117944 0)
(2.89596 -0.0119488 0)
(2.89588 -0.0121639 0)
(2.89577 -0.0124484 0)
(2.89563 -0.0128071 0)
(2.89938 -0.00179837 0)
(2.89817 -0.00530166 0)
(2.89711 -0.00837513 0)
(2.89627 -0.0108347 0)
(2.89564 -0.0126531 0)
(2.89522 -0.0139092 0)
(2.89494 -0.0147274 0)
(2.89477 -0.0152335 0)
(2.89468 -0.0155325 0)
(2.89462 -0.015702 0)
(2.89459 -0.0157945 0)
(2.89458 -0.0158432 0)
(2.89457 -0.015868 0)
(2.89457 -0.0158802 0)
(2.89456 -0.015886 0)
(2.89456 -0.0158887 0)
(2.89456 -0.01589 0)
(2.89456 -0.0158905 0)
(2.89456 -0.0158907 0)
(2.89456 -0.0158908 0)
(2.89456 -0.0158909 0)
(2.89456 -0.0158909 0)
(2.89456 -0.0158909 0)
(2.89456 -0.0158909 0)
(2.89456 -0.0158909 0)
(2.89456 -0.0158909 0)
(2.89456 -0.0158909 0)
(2.89456 -0.0158909 0)
(2.89456 -0.0158909 0)
(2.89456 -0.0158909 0)
(2.89456 -0.0158909 0)
(2.89456 -0.0158909 0)
(2.89456 -0.0158909 0)
(2.89456 -0.0158909 0)
(2.89456 -0.0158909 0)
(2.89456 -0.0158909 0)
(2.89456 -0.0158909 0)
(2.89456 -0.0158909 0)
(2.89456 -0.0158909 0)
(2.89456 -0.0158909 0)
(2.89456 -0.0158909 0)
(2.89456 -0.0158909 0)
(2.89456 -0.0158909 0)
(2.89456 -0.0158909 0)
(2.89456 -0.0158909 0)
(2.89456 -0.015891 0)
(2.89456 -0.0158912 0)
(2.89456 -0.0158919 0)
(2.89456 -0.0158934 0)
(2.89456 -0.0158969 0)
(2.89456 -0.0159045 0)
(2.89455 -0.0159196 0)
(2.89454 -0.0159479 0)
(2.89453 -0.0159973 0)
(2.8945 -0.0160784 0)
(2.89445 -0.0162038 0)
(2.89438 -0.0163868 0)
(2.89429 -0.0166398 0)
(2.89416 -0.0169721 0)
(2.894 -0.0173883 0)
(2.89912 -0.00251657 0)
(2.89743 -0.00738216 0)
(2.89595 -0.0116021 0)
(2.8948 -0.0149334 0)
(2.89396 -0.0173618 0)
(2.89339 -0.019017 0)
(2.89303 -0.0200821 0)
(2.89281 -0.0207341 0)
(2.89268 -0.0211161 0)
(2.89261 -0.0213311 0)
(2.89257 -0.0214477 0)
(2.89255 -0.0215089 0)
(2.89254 -0.0215399 0)
(2.89254 -0.0215552 0)
(2.89254 -0.0215625 0)
(2.89254 -0.0215659 0)
(2.89253 -0.0215674 0)
(2.89253 -0.0215681 0)
(2.89253 -0.0215684 0)
(2.89253 -0.0215685 0)
(2.89253 -0.0215686 0)
(2.89253 -0.0215686 0)
(2.89253 -0.0215686 0)
(2.89253 -0.0215686 0)
(2.89253 -0.0215686 0)
(2.89253 -0.0215686 0)
(2.89253 -0.0215686 0)
(2.89253 -0.0215686 0)
(2.89253 -0.0215686 0)
(2.89253 -0.0215686 0)
(2.89253 -0.0215686 0)
(2.89253 -0.0215686 0)
(2.89253 -0.0215686 0)
(2.89253 -0.0215686 0)
(2.89253 -0.0215686 0)
(2.89253 -0.0215686 0)
(2.89253 -0.0215686 0)
(2.89253 -0.0215686 0)
(2.89253 -0.0215686 0)
(2.89253 -0.0215686 0)
(2.89253 -0.0215686 0)
(2.89253 -0.0215686 0)
(2.89253 -0.0215686 0)
(2.89253 -0.0215686 0)
(2.89253 -0.0215687 0)
(2.89253 -0.0215688 0)
(2.89253 -0.0215691 0)
(2.89253 -0.0215699 0)
(2.89253 -0.0215718 0)
(2.89253 -0.0215762 0)
(2.89253 -0.0215856 0)
(2.89252 -0.021604 0)
(2.89251 -0.021638 0)
(2.89249 -0.0216968 0)
(2.89246 -0.0217923 0)
(2.8924 -0.0219387 0)
(2.89232 -0.0221507 0)
(2.89221 -0.0224415 0)
(2.89206 -0.0228211 0)
(2.89188 -0.0232938 0)
(2.89877 -0.00348146 0)
(2.89642 -0.0101606 0)
(2.89441 -0.0158795 0)
(2.89285 -0.020325 0)
(2.89173 -0.0235148 0)
(2.89099 -0.0256565 0)
(2.89053 -0.0270164 0)
(2.89025 -0.0278396 0)
(2.89008 -0.0283172 0)
(2.89 -0.028584 0)
(2.88995 -0.028728 0)
(2.88993 -0.0288031 0)
(2.88991 -0.0288412 0)
(2.88991 -0.0288598 0)
(2.8899 -0.0288688 0)
(2.8899 -0.0288729 0)
(2.8899 -0.0288748 0)
(2.8899 -0.0288756 0)
(2.8899 -0.028876 0)
(2.8899 -0.0288761 0)
(2.8899 -0.0288762 0)
(2.8899 -0.0288762 0)
(2.8899 -0.0288762 0)
(2.8899 -0.0288762 0)
(2.8899 -0.0288762 0)
(2.8899 -0.0288762 0)
(2.8899 -0.0288762 0)
(2.8899 -0.0288762 0)
(2.8899 -0.0288762 0)
(2.8899 -0.0288762 0)
(2.8899 -0.0288762 0)
(2.8899 -0.0288762 0)
(2.8899 -0.0288762 0)
(2.8899 -0.0288762 0)
(2.8899 -0.0288762 0)
(2.8899 -0.0288762 0)
(2.8899 -0.0288762 0)
(2.8899 -0.0288762 0)
(2.8899 -0.0288762 0)
(2.8899 -0.0288762 0)
(2.8899 -0.0288762 0)
(2.8899 -0.0288762 0)
(2.8899 -0.0288763 0)
(2.8899 -0.0288763 0)
(2.8899 -0.0288763 0)
(2.8899 -0.0288764 0)
(2.8899 -0.0288768 0)
(2.8899 -0.0288778 0)
(2.8899 -0.0288802 0)
(2.8899 -0.0288856 0)
(2.8899 -0.0288969 0)
(2.88989 -0.0289187 0)
(2.88987 -0.0289586 0)
(2.88985 -0.0290268 0)
(2.88981 -0.0291367 0)
(2.88975 -0.0293036 0)
(2.88965 -0.0295435 0)
(2.88953 -0.0298705 0)
(2.88936 -0.0302947 0)
(2.88915 -0.0308202 0)
(2.89831 -0.00476967 0)
(2.89508 -0.0138448 0)
(2.89236 -0.0215017 0)
(2.89029 -0.0273496 0)
(2.88884 -0.0314708 0)
(2.88789 -0.034192 0)
(2.8873 -0.0358947 0)
(2.88695 -0.0369126 0)
(2.88675 -0.0374972 0)
(2.88664 -0.0378212 0)
(2.88659 -0.0379949 0)
(2.88656 -0.0380852 0)
(2.88654 -0.0381307 0)
(2.88654 -0.0381531 0)
(2.88653 -0.0381637 0)
(2.88653 -0.0381687 0)
(2.88653 -0.0381709 0)
(2.88653 -0.0381719 0)
(2.88653 -0.0381724 0)
(2.88653 -0.0381725 0)
(2.88653 -0.0381726 0)
(2.88653 -0.0381727 0)
(2.88653 -0.0381727 0)
(2.88653 -0.0381727 0)
(2.88653 -0.0381727 0)
(2.88653 -0.0381727 0)
(2.88653 -0.0381727 0)
(2.88653 -0.0381727 0)
(2.88653 -0.0381727 0)
(2.88653 -0.0381727 0)
(2.88653 -0.0381727 0)
(2.88653 -0.0381727 0)
(2.88653 -0.0381727 0)
(2.88653 -0.0381727 0)
(2.88653 -0.0381727 0)
(2.88653 -0.0381727 0)
(2.88653 -0.0381727 0)
(2.88653 -0.0381727 0)
(2.88653 -0.0381727 0)
(2.88653 -0.0381727 0)
(2.88653 -0.0381727 0)
(2.88653 -0.0381727 0)
(2.88653 -0.0381727 0)
(2.88653 -0.0381727 0)
(2.88653 -0.0381728 0)
(2.88653 -0.0381729 0)
(2.88653 -0.0381734 0)
(2.88653 -0.0381746 0)
(2.88653 -0.0381775 0)
(2.88653 -0.0381839 0)
(2.88652 -0.038197 0)
(2.88651 -0.0382223 0)
(2.8865 -0.0382679 0)
(2.88647 -0.0383452 0)
(2.88642 -0.0384686 0)
(2.88635 -0.0386545 0)
(2.88625 -0.0389199 0)
(2.88611 -0.0392794 0)
(2.88593 -0.0397433 0)
(2.8857 -0.040315 0)
(2.89768 -0.00648331 0)
(2.89331 -0.0187057 0)
(2.88968 -0.0288421 0)
(2.88698 -0.036427 0)
(2.88512 -0.041664 0)
(2.88392 -0.0450576 0)
(2.88319 -0.0471469 0)
(2.88277 -0.048379 0)
(2.88253 -0.0490791 0)
(2.8824 -0.0494637 0)
(2.88233 -0.0496686 0)
(2.88229 -0.0497745 0)
(2.88228 -0.0498279 0)
(2.88227 -0.049854 0)
(2.88226 -0.0498664 0)
(2.88226 -0.0498722 0)
(2.88226 -0.0498748 0)
(2.88226 -0.049876 0)
(2.88226 -0.0498765 0)
(2.88226 -0.0498767 0)
(2.88226 -0.0498768 0)
(2.88226 -0.0498768 0)
(2.88226 -0.0498768 0)
(2.88226 -0.0498768 0)
(2.88226 -0.0498768 0)
(2.88226 -0.0498768 0)
(2.88226 -0.0498768 0)
(2.88226 -0.0498768 0)
(2.88226 -0.0498768 0)
(2.88226 -0.0498768 0)
(2.88226 -0.0498768 0)
(2.88226 -0.0498768 0)
(2.88226 -0.0498768 0)
(2.88226 -0.0498768 0)
(2.88226 -0.0498768 0)
(2.88226 -0.0498768 0)
(2.88226 -0.0498768 0)
(2.88226 -0.0498768 0)
(2.88226 -0.0498768 0)
(2.88226 -0.0498768 0)
(2.88226 -0.0498768 0)
(2.88226 -0.0498768 0)
(2.88226 -0.0498769 0)
(2.88226 -0.0498769 0)
(2.88226 -0.0498769 0)
(2.88226 -0.0498772 0)
(2.88226 -0.0498777 0)
(2.88226 -0.0498792 0)
(2.88226 -0.0498826 0)
(2.88226 -0.0498899 0)
(2.88225 -0.0499049 0)
(2.88224 -0.0499334 0)
(2.88222 -0.0499842 0)
(2.88219 -0.0500696 0)
(2.88214 -0.0502049 0)
(2.88206 -0.0504073 0)
(2.88195 -0.0506942 0)
(2.8818 -0.0510807 0)
(2.8816 -0.0515768 0)
(2.88136 -0.0521856 0)
(2.89685 -0.00876142 0)
(2.89096 -0.0251018 0)
(2.88619 -0.0383778 0)
(2.88271 -0.048077 0)
(2.88037 -0.0546187 0)
(2.8789 -0.0587697 0)
(2.87801 -0.06128 0)
(2.8775 -0.0627388 0)
(2.87722 -0.0635581 0)
(2.87707 -0.0640042 0)
(2.87699 -0.0642402 0)
(2.87695 -0.0643616 0)
(2.87693 -0.0644226 0)
(2.87692 -0.0644523 0)
(2.87691 -0.0644665 0)
(2.87691 -0.0644731 0)
(2.87691 -0.0644761 0)
(2.87691 -0.0644774 0)
(2.87691 -0.064478 0)
(2.87691 -0.0644782 0)
(2.87691 -0.0644783 0)
(2.87691 -0.0644784 0)
(2.87691 -0.0644784 0)
(2.87691 -0.0644784 0)
(2.87691 -0.0644784 0)
(2.87691 -0.0644784 0)
(2.87691 -0.0644784 0)
(2.87691 -0.0644784 0)
(2.87691 -0.0644784 0)
(2.87691 -0.0644784 0)
(2.87691 -0.0644784 0)
(2.87691 -0.0644784 0)
(2.87691 -0.0644784 0)
(2.87691 -0.0644784 0)
(2.87691 -0.0644784 0)
(2.87691 -0.0644784 0)
(2.87691 -0.0644784 0)
(2.87691 -0.0644784 0)
(2.87691 -0.0644784 0)
(2.87691 -0.0644784 0)
(2.87691 -0.0644784 0)
(2.87691 -0.0644784 0)
(2.87691 -0.0644784 0)
(2.87691 -0.0644785 0)
(2.87691 -0.0644785 0)
(2.87691 -0.0644788 0)
(2.87691 -0.0644795 0)
(2.87691 -0.0644811 0)
(2.87691 -0.064485 0)
(2.87691 -0.0644933 0)
(2.8769 -0.0645098 0)
(2.87689 -0.0645411 0)
(2.87687 -0.0645964 0)
(2.87683 -0.0646885 0)
(2.87678 -0.0648332 0)
(2.8767 -0.0650483 0)
(2.87658 -0.0653514 0)
(2.87641 -0.0657576 0)
(2.87621 -0.0662764 0)
(2.87595 -0.0669105 0)
(2.89573 -0.0117984 0)
(2.88787 -0.0335147 0)
(2.88165 -0.0507228 0)
(2.87724 -0.0629448 0)
(2.87435 -0.0709695 0)
(2.87258 -0.0759432 0)
(2.87153 -0.0788926 0)
(2.87094 -0.0805799 0)
(2.87061 -0.0815157 0)
(2.87044 -0.0820205 0)
(2.87035 -0.0822857 0)
(2.87031 -0.0824215 0)
(2.87028 -0.0824894 0)
(2.87027 -0.0825225 0)
(2.87027 -0.0825383 0)
(2.87026 -0.0825456 0)
(2.87026 -0.0825489 0)
(2.87026 -0.0825504 0)
(2.87026 -0.082551 0)
(2.87026 -0.0825513 0)
(2.87026 -0.0825514 0)
(2.87026 -0.0825515 0)
(2.87026 -0.0825515 0)
(2.87026 -0.0825515 0)
(2.87026 -0.0825515 0)
(2.87026 -0.0825515 0)
(2.87026 -0.0825515 0)
(2.87026 -0.0825515 0)
(2.87026 -0.0825515 0)
(2.87026 -0.0825515 0)
(2.87026 -0.0825515 0)
(2.87026 -0.0825515 0)
(2.87026 -0.0825515 0)
(2.87026 -0.0825515 0)
(2.87026 -0.0825515 0)
(2.87026 -0.0825515 0)
(2.87026 -0.0825515 0)
(2.87026 -0.0825515 0)
(2.87026 -0.0825515 0)
(2.87026 -0.0825515 0)
(2.87026 -0.0825515 0)
(2.87026 -0.0825515 0)
(2.87026 -0.0825515 0)
(2.87026 -0.0825516 0)
(2.87026 -0.0825517 0)
(2.87026 -0.082552 0)
(2.87026 -0.0825527 0)
(2.87026 -0.0825546 0)
(2.87026 -0.0825589 0)
(2.87026 -0.0825679 0)
(2.87025 -0.0825858 0)
(2.87024 -0.0826192 0)
(2.87022 -0.0826778 0)
(2.87018 -0.0827746 0)
(2.87012 -0.0829257 0)
(2.87004 -0.0831488 0)
(2.86991 -0.0834615 0)
(2.86974 -0.0838784 0)
(2.86953 -0.0844087 0)
(2.86927 -0.0850543 0)
(2.89423 -0.0158748 0)
(2.88379 -0.0446027 0)
(2.87577 -0.0666735 0)
(2.87028 -0.0818327 0)
(2.86679 -0.0914838 0)
(2.8647 -0.0973106 0)
(2.86349 -0.100693 0)
(2.86282 -0.102595 0)
(2.86245 -0.103637 0)
(2.86226 -0.104193 0)
(2.86216 -0.104484 0)
(2.86211 -0.104632 0)
(2.86209 -0.104705 0)
(2.86208 -0.104741 0)
(2.86207 -0.104758 0)
(2.86207 -0.104766 0)
(2.86207 -0.10477 0)
(2.86207 -0.104771 0)
(2.86207 -0.104772 0)
(2.86207 -0.104772 0)
(2.86207 -0.104773 0)
(2.86207 -0.104773 0)
(2.86207 -0.104773 0)
(2.86207 -0.104773 0)
(2.86207 -0.104773 0)
(2.86207 -0.104773 0)
(2.86207 -0.104773 0)
(2.86207 -0.104773 0)
(2.86207 -0.104773 0)
(2.86207 -0.104773 0)
(2.86207 -0.104773 0)
(2.86207 -0.104773 0)