/*--------------------------------*- C++ -*----------------------------------*\
| =========                 |                                                 |
| \\      /  F ield         | OpenFOAM: The Open Source CFD Toolbox           |
|  \\    /   O peration     | Version:  2412                                  |
|   \\  /    A nd           | Website:  www.openfoam.com                      |
|    \\/     M anipulation  |                                                 |
\*---------------------------------------------------------------------------*/
FoamFile
{
    version     2.0;
    format      ascii;
    arch        "LSB;label=32;scalar=64";
    class       volVectorField;
    location    "0.0025";
    object      U;
}
// * * * * * * * * * * * * * * * * * * * * * * * * * * * * * * * * * * * * * //

dimensions      [0 1 -1 0 0 0 0];

internalField   nonuniform List<vector> 
1800
(
(2.9 -1.1235e-06 0)
(2.9 -3.64697e-06 0)
(2.89999 -6.15787e-06 0)
(2.89999 -8.41044e-06 0)
(2.89999 -1.02546e-05 0)
(2.89999 -1.16455e-05 0)
(2.89999 -1.26193e-05 0)
(2.89999 -1.32564e-05 0)
(2.89999 -1.36481e-05 0)
(2.89999 -1.38755e-05 0)
(2.89999 -1.40006e-05 0)
(2.89999 -1.40662e-05 0)
(2.89999 -1.4099e-05 0)
(2.89999 -1.41147e-05 0)
(2.89999 -1.4122e-05 0)
(2.89999 -1.41252e-05 0)
(2.89999 -1.41265e-05 0)
(2.89999 -1.41271e-05 0)
(2.89999 -1.41273e-05 0)
(2.89999 -1.41274e-05 0)
(2.89999 -1.41274e-05 0)
(2.89999 -1.41275e-05 0)
(2.89999 -1.41275e-05 0)
(2.89999 -1.41275e-05 0)
(2.89999 -1.41275e-05 0)
(2.89999 -1.41275e-05 0)
(2.89999 -1.41275e-05 0)
(2.89999 -1.41275e-05 0)
(2.89999 -1.41275e-05 0)
(2.89999 -1.41275e-05 0)
(2.89999 -1.41275e-05 0)
(2.89999 -1.41275e-05 0)
(2.89999 -1.41275e-05 0)
(2.89999 -1.41275e-05 0)
(2.89999 -1.41275e-05 0)
(2.89999 -1.41275e-05 0)
(2.89999 -1.41275e-05 0)
(2.89999 -1.41275e-05 0)
(2.89999 -1.41275e-05 0)
(2.89999 -1.41275e-05 0)
(2.89999 -1.41275e-05 0)
(2.89999 -1.41275e-05 0)
(2.89999 -1.41275e-05 0)
(2.89999 -1.41275e-05 0)
(2.89999 -1.41275e-05 0)
(2.89999 -1.41275e-05 0)
(2.89999 -1.41275e-05 0)
(2.89999 -1.41276e-05 0)
(2.89999 -1.41281e-05 0)
(2.89999 -1.41297e-05 0)
(2.89999 -1.41351e-05 0)
(2.89998 -1.41505e-05 0)
(2.89998 -1.41903e-05 0)
(2.89998 -1.42831e-05 0)
(2.89998 -1.448e-05 0)
(2.89998 -1.48623e-05 0)
(2.89998 -1.55453e-05 0)
(2.89998 -1.66747e-05 0)
(2.89998 -1.84145e-05 0)
(2.89998 -2.09269e-05 0)
(2.9 -4.16502e-06 0)
(2.89999 -1.34193e-05 0)
(2.89999 -2.25634e-05 0)
(2.89999 -3.07306e-05 0)
(2.89999 -3.74007e-05 0)
(2.89998 -4.2427e-05 0)
(2.89998 -4.59478e-05 0)
(2.89998 -4.8255e-05 0)
(2.89998 -4.96772e-05 0)
(2.89998 -5.05057e-05 0)
(2.89998 -5.09638e-05 0)
(2.89998 -5.1205e-05 0)
(2.89998 -5.13264e-05 0)
(2.89998 -5.13849e-05 0)
(2.89998 -5.1412e-05 0)
(2.89998 -5.14241e-05 0)
(2.89998 -5.14293e-05 0)
(2.89998 -5.14315e-05 0)
(2.89998 -5.14324e-05 0)
(2.89998 -5.14327e-05 0)
(2.89998 -5.14328e-05 0)
(2.89998 -5.14329e-05 0)
(2.89998 -5.14329e-05 0)
(2.89998 -5.14329e-05 0)
(2.89998 -5.14329e-05 0)
(2.89998 -5.14329e-05 0)
(2.89998 -5.14329e-05 0)
(2.89998 -5.14329e-05 0)
(2.89998 -5.14329e-05 0)
(2.89998 -5.14329e-05 0)
(2.89998 -5.14329e-05 0)
(2.89998 -5.14329e-05 0)
(2.89998 -5.14329e-05 0)
(2.89998 -5.14329e-05 0)
(2.89998 -5.14329e-05 0)
(2.89998 -5.14329e-05 0)
(2.89998 -5.14329e-05 0)
(2.89998 -5.14329e-05 0)
(2.89998 -5.14329e-05 0)
(2.89998 -5.14329e-05 0)
(2.89998 -5.14329e-05 0)
(2.89998 -5.14329e-05 0)
(2.89998 -5.14329e-05 0)
(2.89998 -5.14329e-05 0)
(2.89998 -5.14329e-05 0)
(2.89998 -5.14329e-05 0)
(2.89998 -5.1433e-05 0)
(2.89998 -5.14336e-05 0)
(2.89998 -5.14356e-05 0)
(2.89998 -5.14427e-05 0)
(2.89998 -5.14645e-05 0)
(2.89998 -5.15251e-05 0)
(2.89998 -5.16766e-05 0)
(2.89998 -5.20207e-05 0)
(2.89998 -5.2734e-05 0)
(2.89998 -5.40906e-05 0)
(2.89998 -5.64711e-05 0)
(2.89998 -6.03473e-05 0)
(2.89997 -6.62388e-05 0)
(2.89997 -7.46481e-05 0)
(2.9 -8.97879e-06 0)
(2.89999 -2.86835e-05 0)
(2.89999 -4.7979e-05 0)
(2.89998 -6.50968e-05 0)
(2.89998 -7.90056e-05 0)
(2.89997 -8.94474e-05 0)
(2.89997 -9.67431e-05 0)
(2.89997 -0.000101517 0)
(2.89997 -0.000104458 0)
(2.89997 -0.000106172 0)
(2.89997 -0.000107121 0)
(2.89997 -0.000107621 0)
(2.89997 -0.000107874 0)
(2.89997 -0.000107996 0)
(2.89997 -0.000108053 0)
(2.89997 -0.000108078 0)
(2.89997 -0.000108089 0)
(2.89997 -0.000108094 0)
(2.89997 -0.000108096 0)
(2.89997 -0.000108096 0)
(2.89997 -0.000108097 0)
(2.89997 -0.000108097 0)
(2.89997 -0.000108097 0)
(2.89997 -0.000108097 0)
(2.89997 -0.000108097 0)
(2.89997 -0.000108097 0)
(2.89997 -0.000108097 0)
(2.89997 -0.000108097 0)
(2.89997 -0.000108097 0)
(2.89997 -0.000108097 0)
(2.89997 -0.000108097 0)
(2.89997 -0.000108097 0)
(2.89997 -0.000108097 0)
(2.89997 -0.000108097 0)
(2.89997 -0.000108097 0)
(2.89997 -0.000108097 0)
(2.89997 -0.000108097 0)
(2.89997 -0.000108097 0)
(2.89997 -0.000108097 0)
(2.89997 -0.000108097 0)
(2.89997 -0.000108097 0)
(2.89997 -0.000108097 0)
(2.89997 -0.000108097 0)
(2.89997 -0.000108097 0)
(2.89997 -0.000108097 0)
(2.89997 -0.000108097 0)
(2.89997 -0.000108097 0)
(2.89997 -0.000108099 0)
(2.89997 -0.000108104 0)
(2.89997 -0.00010812 0)
(2.89997 -0.00010817 0)
(2.89997 -0.000108304 0)
(2.89997 -0.00010863 0)
(2.89997 -0.000109352 0)
(2.89997 -0.000110815 0)
(2.89997 -0.000113545 0)
(2.89996 -0.000118255 0)
(2.89996 -0.00012581 0)
(2.89996 -0.000137143 0)
(2.89995 -0.000153131 0)
(2.9 -1.69924e-05 0)
(2.89998 -5.37865e-05 0)
(2.89997 -8.94483e-05 0)
(2.89997 -0.000120826 0)
(2.89996 -0.000146153 0)
(2.89995 -0.000165065 0)
(2.89995 -0.000178223 0)
(2.89995 -0.000186807 0)
(2.89995 -0.000192084 0)
(2.89994 -0.000195156 0)
(2.89994 -0.000196855 0)
(2.89994 -0.000197753 0)
(2.89994 -0.000198206 0)
(2.89994 -0.000198425 0)
(2.89994 -0.000198528 0)
(2.89994 -0.000198574 0)
(2.89994 -0.000198594 0)
(2.89994 -0.000198602 0)
(2.89994 -0.000198605 0)
(2.89994 -0.000198607 0)
(2.89994 -0.000198607 0)
(2.89994 -0.000198608 0)
(2.89994 -0.000198608 0)
(2.89994 -0.000198608 0)
(2.89994 -0.000198608 0)
(2.89994 -0.000198608 0)
(2.89994 -0.000198608 0)
(2.89994 -0.000198608 0)
(2.89994 -0.000198608 0)
(2.89994 -0.000198608 0)
(2.89994 -0.000198608 0)
(2.89994 -0.000198608 0)
(2.89994 -0.000198608 0)
(2.89994 -0.000198608 0)
(2.89994 -0.000198608 0)
(2.89994 -0.000198608 0)
(2.89994 -0.000198608 0)
(2.89994 -0.000198608 0)
(2.89994 -0.000198608 0)
(2.89994 -0.000198608 0)
(2.89994 -0.000198608 0)
(2.89994 -0.000198608 0)
(2.89994 -0.000198608 0)
(2.89994 -0.000198608 0)
(2.89994 -0.000198608 0)
(2.89994 -0.000198608 0)
(2.89994 -0.000198609 0)
(2.89994 -0.000198612 0)
(2.89994 -0.000198622 0)
(2.89994 -0.000198656 0)
(2.89994 -0.000198755 0)
(2.89994 -0.00019901 0)
(2.89994 -0.000199614 0)
(2.89994 -0.000200918 0)
(2.89994 -0.000203505 0)
(2.89994 -0.000208236 0)
(2.89994 -0.000216259 0)
(2.89993 -0.000228929 0)
(2.89993 -0.000247673 0)
(2.89992 -0.000273788 0)
(2.89999 -3.03268e-05 0)
(2.89997 -9.51174e-05 0)
(2.89996 -0.000157248 0)
(2.89994 -0.000211432 0)
(2.89993 -0.000254839 0)
(2.89992 -0.000287048 0)
(2.89991 -0.000309343 0)
(2.89991 -0.000323827 0)
(2.89991 -0.000332704 0)
(2.8999 -0.00033786 0)
(2.8999 -0.00034071 0)
(2.8999 -0.000342214 0)
(2.8999 -0.000342974 0)
(2.8999 -0.000343343 0)
(2.8999 -0.000343515 0)
(2.8999 -0.000343592 0)
(2.8999 -0.000343626 0)
(2.8999 -0.00034364 0)
(2.8999 -0.000343646 0)
(2.8999 -0.000343648 0)
(2.8999 -0.000343649 0)
(2.8999 -0.000343649 0)
(2.8999 -0.00034365 0)
(2.8999 -0.00034365 0)
(2.8999 -0.00034365 0)
(2.8999 -0.00034365 0)
(2.8999 -0.00034365 0)
(2.8999 -0.00034365 0)
(2.8999 -0.00034365 0)
(2.8999 -0.00034365 0)
(2.8999 -0.00034365 0)
(2.8999 -0.00034365 0)
(2.8999 -0.00034365 0)
(2.8999 -0.00034365 0)
(2.8999 -0.00034365 0)
(2.8999 -0.00034365 0)
(2.8999 -0.00034365 0)
(2.8999 -0.00034365 0)
(2.8999 -0.00034365 0)
(2.8999 -0.00034365 0)
(2.8999 -0.00034365 0)
(2.8999 -0.00034365 0)
(2.8999 -0.00034365 0)
(2.8999 -0.00034365 0)
(2.8999 -0.00034365 0)
(2.8999 -0.00034365 0)
(2.8999 -0.000343652 0)
(2.8999 -0.000343658 0)
(2.8999 -0.000343679 0)
(2.8999 -0.000343743 0)
(2.8999 -0.000343923 0)
(2.8999 -0.000344375 0)
(2.8999 -0.000345414 0)
(2.8999 -0.000347607 0)
(2.8999 -0.000351862 0)
(2.8999 -0.000359497 0)
(2.89989 -0.000372218 0)
(2.89989 -0.000392001 0)
(2.89988 -0.000420863 0)
(2.89987 -0.000460573 0)
(2.89999 -5.21031e-05 0)
(2.89995 -0.000161989 0)
(2.89992 -0.000266253 0)
(2.8999 -0.000356356 0)
(2.89988 -0.000427967 0)
(2.89986 -0.000480741 0)
(2.89985 -0.000517059 0)
(2.89984 -0.00054054 0)
(2.89984 -0.000554879 0)
(2.89984 -0.000563185 0)
(2.89984 -0.000567767 0)
(2.89984 -0.000570183 0)
(2.89984 -0.000571403 0)
(2.89983 -0.000571996 0)
(2.89983 -0.000572273 0)
(2.89983 -0.000572398 0)
(2.89983 -0.000572452 0)
(2.89983 -0.000572475 0)
(2.89983 -0.000572485 0)
(2.89983 -0.000572488 0)
(2.89983 -0.00057249 0)
(2.89983 -0.00057249 0)
(2.89983 -0.000572491 0)
(2.89983 -0.000572491 0)
(2.89983 -0.000572491 0)
(2.89983 -0.000572491 0)
(2.89983 -0.000572491 0)
(2.89983 -0.000572491 0)
(2.89983 -0.000572491 0)
(2.89983 -0.000572491 0)
(2.89983 -0.000572491 0)
(2.89983 -0.000572491 0)
(2.89983 -0.000572491 0)
(2.89983 -0.000572491 0)
(2.89983 -0.000572491 0)
(2.89983 -0.000572491 0)
(2.89983 -0.000572491 0)
(2.89983 -0.000572491 0)
(2.89983 -0.000572491 0)
(2.89983 -0.000572491 0)
(2.89983 -0.000572491 0)
(2.89983 -0.000572491 0)
(2.89983 -0.000572491 0)
(2.89983 -0.000572491 0)
(2.89983 -0.000572491 0)
(2.89983 -0.000572492 0)
(2.89983 -0.000572495 0)
(2.89983 -0.000572507 0)
(2.89983 -0.000572546 0)
(2.89983 -0.000572661 0)
(2.89983 -0.000572971 0)
(2.89983 -0.000573731 0)
(2.89983 -0.000575434 0)
(2.89983 -0.000578944 0)
(2.89983 -0.000585615 0)
(2.89983 -0.000597362 0)
(2.89982 -0.000616614 0)
(2.89981 -0.00064611 0)
(2.8998 -0.000688565 0)
(2.89978 -0.000746265 0)
(2.89997 -8.68219e-05 0)
(2.89992 -0.000267722 0)
(2.89987 -0.000437601 0)
(2.89983 -0.000583065 0)
(2.89979 -0.000697728 0)
(2.89977 -0.000781618 0)
(2.89975 -0.000838988 0)
(2.89974 -0.000875887 0)
(2.89973 -0.000898323 0)
(2.89973 -0.000911279 0)
(2.89973 -0.00091841 0)
(2.89973 -0.000922164 0)
(2.89973 -0.00092406 0)
(2.89973 -0.000924981 0)
(2.89973 -0.000925411 0)
(2.89973 -0.000925606 0)
(2.89973 -0.000925691 0)
(2.89973 -0.000925727 0)
(2.89973 -0.000925742 0)
(2.89973 -0.000925748 0)
(2.89973 -0.00092575 0)
(2.89973 -0.000925751 0)
(2.89973 -0.000925751 0)
(2.89973 -0.000925751 0)
(2.89973 -0.000925751 0)
(2.89973 -0.000925751 0)
(2.89973 -0.000925751 0)
(2.89973 -0.000925751 0)
(2.89973 -0.000925751 0)
(2.89973 -0.000925751 0)
(2.89973 -0.000925751 0)
(2.89973 -0.000925751 0)
(2.89973 -0.000925751 0)
(2.89973 -0.000925751 0)
(2.89973 -0.000925751 0)
(2.89973 -0.000925751 0)
(2.89973 -0.000925751 0)
(2.89973 -0.000925751 0)
(2.89973 -0.000925751 0)
(2.89973 -0.000925751 0)
(2.89973 -0.000925751 0)
(2.89973 -0.000925751 0)
(2.89973 -0.000925751 0)
(2.89973 -0.000925751 0)
(2.89973 -0.000925752 0)
(2.89973 -0.000925753 0)
(2.89973 -0.00092576 0)
(2.89973 -0.000925781 0)
(2.89973 -0.00092585 0)
(2.89973 -0.000926046 0)
(2.89973 -0.000926559 0)
(2.89973 -0.000927782 0)
(2.89972 -0.000930458 0)
(2.89972 -0.000935855 0)
(2.89972 -0.000945913 0)
(2.89971 -0.00096332 0)
(2.89971 -0.000991399 0)
(2.89969 -0.00103381 0)
(2.89967 -0.00109408 0)
(2.89964 -0.00117505 0)
(2.89996 -0.000140829 0)
(2.89987 -0.000430956 0)
(2.89979 -0.000700686 0)
(2.89972 -0.000929526 0)
(2.89966 -0.00110839 0)
(2.89962 -0.00123824 0)
(2.8996 -0.00132646 0)
(2.89958 -0.00138287 0)
(2.89957 -0.00141702 0)
(2.89956 -0.00143666 0)
(2.89956 -0.00144745 0)
(2.89956 -0.00145312 0)
(2.89956 -0.00145598 0)
(2.89956 -0.00145737 0)
(2.89956 -0.00145802 0)
(2.89956 -0.00145831 0)
(2.89956 -0.00145844 0)
(2.89956 -0.00145849 0)
(2.89956 -0.00145852 0)
(2.89956 -0.00145853 0)
(2.89956 -0.00145853 0)
(2.89956 -0.00145853 0)
(2.89956 -0.00145853 0)
(2.89956 -0.00145853 0)
(2.89956 -0.00145853 0)
(2.89956 -0.00145853 0)
(2.89956 -0.00145853 0)
(2.89956 -0.00145853 0)
(2.89956 -0.00145853 0)
(2.89956 -0.00145853 0)
(2.89956 -0.00145853 0)
(2.89956 -0.00145853 0)
(2.89956 -0.00145853 0)
(2.89956 -0.00145853 0)
(2.89956 -0.00145853 0)
(2.89956 -0.00145853 0)
(2.89956 -0.00145853 0)
(2.89956 -0.00145853 0)
(2.89956 -0.00145853 0)
(2.89956 -0.00145853 0)
(2.89956 -0.00145853 0)
(2.89956 -0.00145853 0)
(2.89956 -0.00145853 0)
(2.89956 -0.00145853 0)
(2.89956 -0.00145853 0)
(2.89956 -0.00145854 0)
(2.89956 -0.00145855 0)
(2.89956 -0.00145858 0)
(2.89956 -0.0014587 0)
(2.89956 -0.00145902 0)
(2.89956 -0.00145983 0)
(2.89956 -0.00146173 0)
(2.89956 -0.00146578 0)
(2.89955 -0.00147378 0)
(2.89955 -0.00148844 0)
(2.89954 -0.00151338 0)
(2.89953 -0.00155302 0)
(2.89951 -0.00161212 0)
(2.89948 -0.00169509 0)
(2.89944 -0.00180532 0)
(2.89993 -0.000222879 0)
(2.89979 -0.000677229 0)
(2.89966 -0.00109552 0)
(2.89955 -0.00144709 0)
(2.89946 -0.00171946 0)
(2.8994 -0.00191562 0)
(2.89936 -0.00204792 0)
(2.89934 -0.00213201 0)
(2.89932 -0.00218265 0)
(2.89931 -0.00221167 0)
(2.89931 -0.00222756 0)
(2.89931 -0.00223589 0)
(2.8993 -0.00224009 0)
(2.8993 -0.00224213 0)
(2.8993 -0.00224308 0)
(2.8993 -0.00224351 0)
(2.8993 -0.0022437 0)
(2.8993 -0.00224378 0)
(2.8993 -0.00224382 0)
(2.8993 -0.00224383 0)
(2.8993 -0.00224384 0)
(2.8993 -0.00224384 0)
(2.8993 -0.00224384 0)
(2.8993 -0.00224384 0)
(2.8993 -0.00224384 0)
(2.8993 -0.00224384 0)
(2.8993 -0.00224384 0)
(2.8993 -0.00224384 0)
(2.8993 -0.00224384 0)
(2.8993 -0.00224384 0)
(2.8993 -0.00224384 0)
(2.8993 -0.00224384 0)
(2.8993 -0.00224384 0)
(2.8993 -0.00224384 0)
(2.8993 -0.00224384 0)
(2.8993 -0.00224384 0)
(2.8993 -0.00224384 0)
(2.8993 -0.00224384 0)
(2.8993 -0.00224384 0)
(2.8993 -0.00224384 0)
(2.8993 -0.00224384 0)
(2.8993 -0.00224384 0)
(2.8993 -0.00224384 0)
(2.8993 -0.00224384 0)
(2.8993 -0.00224384 0)
(2.8993 -0.00224385 0)
(2.8993 -0.00224387 0)
(2.8993 -0.00224393 0)
(2.8993 -0.00224412 0)
(2.8993 -0.00224462 0)
(2.8993 -0.00224586 0)
(2.8993 -0.00224869 0)
(2.8993 -0.00225461 0)
(2.8993 -0.00226609 0)
(2.89929 -0.00228676 0)
(2.89928 -0.00232141 0)
(2.89926 -0.00237573 0)
(2.89923 -0.00245571 0)
(2.89919 -0.00256673 0)
(2.89914 -0.00271274 0)
(2.89989 -0.000344809 0)
(2.89967 -0.00104085 0)
(2.89946 -0.00167547 0)
(2.89929 -0.00220378 0)
(2.89917 -0.0026093 0)
(2.89907 -0.00289886 0)
(2.89901 -0.00309266 0)
(2.89898 -0.00321502 0)
(2.89895 -0.0032883 0)
(2.89894 -0.00333011 0)
(2.89894 -0.00335292 0)
(2.89893 -0.00336486 0)
(2.89893 -0.00337087 0)
(2.89893 -0.00337379 0)
(2.89893 -0.00337516 0)
(2.89893 -0.00337578 0)
(2.89893 -0.00337605 0)
(2.89893 -0.00337616 0)
(2.89893 -0.00337621 0)
(2.89893 -0.00337623 0)
(2.89893 -0.00337624 0)
(2.89893 -0.00337624 0)
(2.89893 -0.00337624 0)
(2.89893 -0.00337624 0)
(2.89893 -0.00337624 0)
(2.89893 -0.00337624 0)
(2.89893 -0.00337624 0)
(2.89893 -0.00337624 0)
(2.89893 -0.00337624 0)
(2.89893 -0.00337624 0)
(2.89893 -0.00337624 0)
(2.89893 -0.00337624 0)
(2.89893 -0.00337624 0)
(2.89893 -0.00337624 0)
(2.89893 -0.00337624 0)
(2.89893 -0.00337624 0)
(2.89893 -0.00337624 0)
(2.89893 -0.00337624 0)
(2.89893 -0.00337624 0)
(2.89893 -0.00337624 0)
(2.89893 -0.00337624 0)
(2.89893 -0.00337624 0)
(2.89893 -0.00337624 0)
(2.89893 -0.00337624 0)
(2.89893 -0.00337625 0)
(2.89893 -0.00337626 0)
(2.89893 -0.00337629 0)
(2.89893 -0.00337639 0)
(2.89893 -0.00337668 0)
(2.89893 -0.00337743 0)
(2.89893 -0.00337927 0)
(2.89893 -0.00338334 0)
(2.89892 -0.00339172 0)
(2.89892 -0.00340769 0)
(2.89891 -0.00343596 0)
(2.89889 -0.0034827 0)
(2.89887 -0.00355505 0)
(2.89883 -0.00366034 0)
(2.89878 -0.00380499 0)
(2.89871 -0.00399343 0)
(2.89983 -0.000522357 0)
(2.89949 -0.00156714 0)
(2.89918 -0.00251056 0)
(2.89893 -0.00328813 0)
(2.89874 -0.00387914 0)
(2.8986 -0.00429726 0)
(2.89851 -0.00457479 0)
(2.89846 -0.00474876 0)
(2.89843 -0.00485233 0)
(2.89841 -0.00491113 0)
(2.8984 -0.0049431 0)
(2.89839 -0.00495979 0)
(2.89839 -0.00496818 0)
(2.89839 -0.00497224 0)
(2.89839 -0.00497415 0)
(2.89839 -0.00497501 0)
(2.89839 -0.0049754 0)
(2.89839 -0.00497556 0)
(2.89839 -0.00497563 0)
(2.89839 -0.00497565 0)
(2.89839 -0.00497566 0)
(2.89839 -0.00497567 0)
(2.89839 -0.00497567 0)
(2.89839 -0.00497567 0)
(2.89839 -0.00497567 0)
(2.89839 -0.00497567 0)
(2.89839 -0.00497567 0)
(2.89839 -0.00497567 0)
(2.89839 -0.00497567 0)
(2.89839 -0.00497567 0)
(2.89839 -0.00497567 0)
(2.89839 -0.00497567 0)
(2.89839 -0.00497567 0)
(2.89839 -0.00497567 0)
(2.89839 -0.00497567 0)
(2.89839 -0.00497567 0)
(2.89839 -0.00497567 0)
(2.89839 -0.00497567 0)
(2.89839 -0.00497567 0)
(2.89839 -0.00497567 0)
(2.89839 -0.00497567 0)
(2.89839 -0.00497567 0)
(2.89839 -0.00497567 0)
(2.89839 -0.00497567 0)
(2.89839 -0.00497568 0)
(2.89839 -0.00497569 0)
(2.89839 -0.00497574 0)
(2.89839 -0.00497589 0)
(2.89839 -0.00497632 0)
(2.89839 -0.00497743 0)
(2.89839 -0.00498004 0)
(2.89839 -0.00498573 0)
(2.89838 -0.00499721 0)
(2.89838 -0.00501874 0)
(2.89836 -0.00505632 0)
(2.89834 -0.00511762 0)
(2.89831 -0.00521139 0)
(2.89826 -0.00534639 0)
(2.89819 -0.00553009 0)
(2.89811 -0.00576728 0)
(2.89974 -0.000776169 0)
(2.89923 -0.00231516 0)
(2.89877 -0.00369123 0)
(2.8984 -0.00481347 0)
(2.89812 -0.00565748 0)
(2.89793 -0.00624864 0)
(2.8978 -0.00663749 0)
(2.89773 -0.00687934 0)
(2.89768 -0.00702237 0)
(2.89766 -0.00710317 0)
(2.89764 -0.00714691 0)
(2.89764 -0.00716968 0)
(2.89763 -0.00718111 0)
(2.89763 -0.00718664 0)
(2.89763 -0.00718924 0)
(2.89763 -0.00719041 0)
(2.89763 -0.00719093 0)
(2.89763 -0.00719116 0)
(2.89763 -0.00719125 0)
(2.89763 -0.00719129 0)
(2.89763 -0.0071913 0)
(2.89763 -0.00719131 0)
(2.89763 -0.00719131 0)
(2.89763 -0.00719131 0)
(2.89763 -0.00719131 0)
(2.89763 -0.00719131 0)
(2.89763 -0.00719131 0)
(2.89763 -0.00719131 0)
(2.89763 -0.00719131 0)
(2.89763 -0.00719131 0)
(2.89763 -0.00719131 0)
(2.89763 -0.00719131 0)
(2.89763 -0.00719131 0)
(2.89763 -0.00719131 0)
(2.89763 -0.00719131 0)
(2.89763 -0.00719131 0)
(2.89763 -0.00719131 0)
(2.89763 -0.00719131 0)
(2.89763 -0.00719131 0)
(2.89763 -0.00719131 0)
(2.89763 -0.00719131 0)
(2.89763 -0.00719131 0)
(2.89763 -0.00719131 0)
(2.89763 -0.00719131 0)
(2.89763 -0.00719132 0)
(2.89763 -0.00719134 0)
(2.89763 -0.00719142 0)
(2.89763 -0.00719164 0)
(2.89763 -0.00719226 0)
(2.89763 -0.00719381 0)
(2.89763 -0.00719741 0)
(2.89763 -0.00720511 0)
(2.89762 -0.00722038 0)
(2.89761 -0.00724859 0)
(2.8976 -0.00729715 0)
(2.89757 -0.00737539 0)
(2.89753 -0.00749376 0)
(2.89746 -0.00766251 0)
(2.89738 -0.00789006 0)
(2.89727 -0.0081815 0)
(2.89962 -0.00113307 0)
(2.89887 -0.00336113 0)
(2.8982 -0.00533304 0)
(2.89766 -0.00692307 0)
(2.89727 -0.00810519 0)
(2.897 -0.00892414 0)
(2.89682 -0.00945752 0)
(2.89672 -0.00978644 0)
(2.89665 -0.00997958 0)
(2.89662 -0.010088 0)
(2.8966 -0.0101465 0)
(2.89659 -0.0101769 0)
(2.89659 -0.0101921 0)
(2.89659 -0.0101994 0)
(2.89659 -0.0102029 0)
(2.89658 -0.0102044 0)
(2.89658 -0.0102051 0)
(2.89658 -0.0102054 0)
(2.89658 -0.0102055 0)
(2.89658 -0.0102056 0)
(2.89658 -0.0102056 0)
(2.89658 -0.0102056 0)
(2.89658 -0.0102056 0)
(2.89658 -0.0102056 0)
(2.89658 -0.0102056 0)
(2.89658 -0.0102056 0)
(2.89658 -0.0102056 0)
(2.89658 -0.0102056 0)
(2.89658 -0.0102056 0)
(2.89658 -0.0102056 0)
(2.89658 -0.0102056 0)
(2.89658 -0.0102056 0)
(2.89658 -0.0102056 0)
(2.89658 -0.0102056 0)
(2.89658 -0.0102056 0)
(2.89658 -0.0102056 0)
(2.89658 -0.0102056 0)
(2.89658 -0.0102056 0)
(2.89658 -0.0102056 0)
(2.89658 -0.0102056 0)
(2.89658 -0.0102056 0)
(2.89658 -0.0102056 0)
(2.89658 -0.0102056 0)
(2.89658 -0.0102056 0)
(2.89658 -0.0102056 0)
(2.89658 -0.0102057 0)
(2.89658 -0.0102058 0)
(2.89658 -0.0102061 0)
(2.89658 -0.010207 0)
(2.89658 -0.0102091 0)
(2.89658 -0.0102139 0)
(2.89658 -0.010224 0)
(2.89657 -0.0102437 0)
(2.89656 -0.0102796 0)
(2.89654 -0.0103407 0)
(2.8965 -0.010438 0)
(2.89645 -0.0105836 0)
(2.89637 -0.0107894 0)
(2.89627 -0.0110645 0)
(2.89614 -0.0114143 0)
(2.89944 -0.00162775 0)
(2.89836 -0.00480279 0)
(2.8974 -0.00758248 0)
(2.89665 -0.0097962 0)
(2.8961 -0.0114212 0)
(2.89572 -0.0125335 0)
(2.89549 -0.0132501 0)
(2.89534 -0.0136879 0)
(2.89526 -0.0139429 0)
(2.89521 -0.0140853 0)
(2.89519 -0.0141617 0)
(2.89518 -0.0142012 0)
(2.89517 -0.0142209 0)
(2.89517 -0.0142305 0)
(2.89517 -0.0142349 0)
(2.89517 -0.014237 0)
(2.89517 -0.0142379 0)
(2.89517 -0.0142383 0)
(2.89517 -0.0142384 0)
(2.89517 -0.0142385 0)
(2.89517 -0.0142385 0)
(2.89517 -0.0142385 0)
(2.89517 -0.0142385 0)
(2.89517 -0.0142385 0)
(2.89517 -0.0142385 0)
(2.89517 -0.0142385 0)
(2.89517 -0.0142385 0)
(2.89517 -0.0142385 0)
(2.89517 -0.0142385 0)
(2.89517 -0.0142385 0)
(2.89517 -0.0142385 0)
(2.89517 -0.0142385 0)
(2.89517 -0.0142385 0)
(2.89517 -0.0142385 0)
(2.89517 -0.0142385 0)
(2.89517 -0.0142385 0)
(2.89517 -0.0142385 0)
(2.89517 -0.0142385 0)
(2.89517 -0.0142385 0)
(2.89517 -0.0142385 0)
(2.89517 -0.0142385 0)
(2.89517 -0.0142385 0)
(2.89517 -0.0142385 0)
(2.89517 -0.0142385 0)
(2.89517 -0.0142385 0)
(2.89517 -0.0142386 0)
(2.89517 -0.0142387 0)
(2.89517 -0.0142392 0)
(2.89517 -0.0142403 0)
(2.89516 -0.0142431 0)
(2.89516 -0.0142493 0)
(2.89516 -0.0142622 0)
(2.89515 -0.014287 0)
(2.89513 -0.0143315 0)
(2.89511 -0.0144063 0)
(2.89507 -0.0145242 0)
(2.895 -0.014699 0)
(2.89491 -0.0149439 0)
(2.89478 -0.0152688 0)
(2.89462 -0.015679 0)
(2.8992 -0.00230504 0)
(2.89766 -0.0067653 0)
(2.89632 -0.0106244 0)
(2.89527 -0.0136556 0)
(2.89452 -0.0158495 0)
(2.89401 -0.0173312 0)
(2.8937 -0.0182744 0)
(2.89351 -0.0188448 0)
(2.8934 -0.0191743 0)
(2.89334 -0.0193569 0)
(2.89331 -0.0194544 0)
(2.89329 -0.0195047 0)
(2.89328 -0.0195297 0)
(2.89328 -0.0195418 0)
(2.89328 -0.0195475 0)
(2.89328 -0.01955 0)
(2.89328 -0.0195512 0)
(2.89328 -0.0195517 0)
(2.89328 -0.0195519 0)
(2.89328 -0.0195519 0)
(2.89328 -0.019552 0)
(2.89328 -0.019552 0)
(2.89328 -0.019552 0)
(2.89328 -0.019552 0)
(2.89328 -0.019552 0)
(2.89328 -0.019552 0)
(2.89328 -0.019552 0)
(2.89328 -0.019552 0)
(2.89328 -0.019552 0)
(2.89328 -0.019552 0)
(2.89328 -0.019552 0)
(2.89328 -0.019552 0)
(2.89328 -0.019552 0)
(2.89328 -0.019552 0)
(2.89328 -0.019552 0)
(2.89328 -0.019552 0)
(2.89328 -0.019552 0)
(2.89328 -0.019552 0)
(2.89328 -0.019552 0)
(2.89328 -0.019552 0)
(2.89328 -0.019552 0)
(2.89328 -0.019552 0)
(2.89328 -0.019552 0)
(2.89328 -0.019552 0)
(2.89328 -0.019552 0)
(2.89328 -0.0195521 0)
(2.89328 -0.0195523 0)
(2.89328 -0.0195529 0)
(2.89328 -0.0195544 0)
(2.89327 -0.019558 0)
(2.89327 -0.0195658 0)
(2.89327 -0.0195817 0)
(2.89326 -0.019612 0)
(2.89324 -0.0196657 0)
(2.89321 -0.019755 0)
(2.89315 -0.0198943 0)
(2.89308 -0.0200991 0)
(2.89297 -0.0203836 0)
(2.89282 -0.0207585 0)
(2.89264 -0.0212288 0)
(2.89887 -0.00322323 0)
(2.8967 -0.00940932 0)
(2.89485 -0.0146918 0)
(2.89343 -0.0187771 0)
(2.89242 -0.0216872 0)
(2.89175 -0.0236235 0)
(2.89134 -0.02484 0)
(2.89109 -0.0255673 0)
(2.89095 -0.0259837 0)
(2.89088 -0.0262128 0)
(2.89084 -0.0263344 0)
(2.89082 -0.0263968 0)
(2.89081 -0.0264278 0)
(2.8908 -0.0264428 0)
(2.8908 -0.0264498 0)
(2.8908 -0.026453 0)
(2.8908 -0.0264544 0)
(2.8908 -0.026455 0)
(2.8908 -0.0264553 0)
(2.8908 -0.0264554 0)
(2.8908 -0.0264554 0)
(2.8908 -0.0264554 0)
(2.8908 -0.0264554 0)
(2.8908 -0.0264554 0)
(2.8908 -0.0264554 0)
(2.8908 -0.0264554 0)
(2.8908 -0.0264554 0)
(2.8908 -0.0264554 0)
(2.8908 -0.0264554 0)
(2.8908 -0.0264554 0)
(2.8908 -0.0264554 0)
(2.8908 -0.0264554 0)
(2.8908 -0.0264554 0)
(2.8908 -0.0264554 0)
(2.8908 -0.0264554 0)
(2.8908 -0.0264554 0)
(2.8908 -0.0264554 0)
(2.8908 -0.0264554 0)
(2.8908 -0.0264554 0)
(2.8908 -0.0264554 0)
(2.8908 -0.0264554 0)
(2.8908 -0.0264554 0)
(2.8908 -0.0264554 0)
(2.8908 -0.0264555 0)
(2.8908 -0.0264555 0)
(2.8908 -0.0264556 0)
(2.8908 -0.0264559 0)
(2.8908 -0.0264566 0)
(2.8908 -0.0264585 0)
(2.8908 -0.0264629 0)
(2.89079 -0.0264725 0)
(2.89079 -0.0264917 0)
(2.89077 -0.0265277 0)
(2.89075 -0.0265908 0)
(2.89071 -0.0266947 0)
(2.89065 -0.0268553 0)
(2.89056 -0.0270894 0)
(2.89044 -0.0274124 0)
(2.89027 -0.0278351 0)
(2.89006 -0.0283623 0)
(2.89842 -0.00445881 0)
(2.89542 -0.0129425 0)
(2.8929 -0.0200794 0)
(2.89099 -0.0255016 0)
(2.88966 -0.029295 0)
(2.8888 -0.0317774 0)
(2.88827 -0.0333142 0)
(2.88796 -0.034222 0)
(2.88778 -0.0347364 0)
(2.88769 -0.0350173 0)
(2.88764 -0.0351655 0)
(2.88762 -0.0352413 0)
(2.88761 -0.0352788 0)
(2.8876 -0.0352969 0)
(2.8876 -0.0353053 0)
(2.8876 -0.0353092 0)
(2.8876 -0.0353109 0)
(2.8876 -0.0353116 0)
(2.8876 -0.0353119 0)
(2.8876 -0.0353121 0)
(2.8876 -0.0353121 0)
(2.8876 -0.0353121 0)
(2.8876 -0.0353121 0)
(2.8876 -0.0353121 0)
(2.8876 -0.0353121 0)
(2.8876 -0.0353121 0)
(2.8876 -0.0353121 0)
(2.8876 -0.0353121 0)
(2.8876 -0.0353121 0)
(2.8876 -0.0353121 0)
(2.8876 -0.0353121 0)
(2.8876 -0.0353121 0)
(2.8876 -0.0353121 0)
(2.8876 -0.0353121 0)
(2.8876 -0.0353121 0)
(2.8876 -0.0353121 0)
(2.8876 -0.0353121 0)
(2.8876 -0.0353121 0)
(2.8876 -0.0353121 0)
(2.8876 -0.0353121 0)
(2.8876 -0.0353121 0)
(2.8876 -0.0353121 0)
(2.8876 -0.0353122 0)
(2.8876 -0.0353122 0)
(2.8876 -0.0353122 0)
(2.8876 -0.0353123 0)
(2.8876 -0.0353127 0)
(2.8876 -0.0353136 0)
(2.88759 -0.0353159 0)
(2.88759 -0.0353213 0)
(2.88759 -0.0353326 0)
(2.88758 -0.0353551 0)
(2.88757 -0.0353968 0)
(2.88754 -0.0354691 0)
(2.8875 -0.035587 0)
(2.88743 -0.0357676 0)
(2.88733 -0.036029 0)
(2.88719 -0.0363871 0)
(2.887 -0.036853 0)
(2.88677 -0.0374309 0)
(2.89782 -0.00611385 0)
(2.89371 -0.0176358 0)
(2.89032 -0.0271613 0)
(2.8878 -0.0342506 0)
(2.88608 -0.03911 0)
(2.88498 -0.0422309 0)
(2.88432 -0.0441322 0)
(2.88394 -0.0452402 0)
(2.88373 -0.0458615 0)
(2.88362 -0.0461979 0)
(2.88356 -0.0463743 0)
(2.88353 -0.046464 0)
(2.88352 -0.0465084 0)
(2.88351 -0.0465297 0)
(2.88351 -0.0465396 0)
(2.88351 -0.0465442 0)
(2.88351 -0.0465462 0)
(2.88351 -0.0465471 0)
(2.88351 -0.0465474 0)
(2.88351 -0.0465476 0)
(2.88351 -0.0465477 0)
(2.88351 -0.0465477 0)
(2.88351 -0.0465477 0)
(2.88351 -0.0465477 0)
(2.88351 -0.0465477 0)
(2.88351 -0.0465477 0)
(2.88351 -0.0465477 0)
(2.88351 -0.0465477 0)
(2.88351 -0.0465477 0)
(2.88351 -0.0465477 0)
(2.88351 -0.0465477 0)
(2.88351 -0.0465477 0)
(2.88351 -0.0465477 0)
(2.88351 -0.0465477 0)
(2.88351 -0.0465477 0)
(2.88351 -0.0465477 0)
(2.88351 -0.0465477 0)
(2.88351 -0.0465477 0)
(2.88351 -0.0465477 0)
(2.88351 -0.0465477 0)
(2.88351 -0.0465477 0)
(2.88351 -0.0465477 0)
(2.88351 -0.0465477 0)
(2.88351 -0.0465477 0)
(2.88351 -0.0465478 0)
(2.88351 -0.0465479 0)
(2.8835 -0.0465484 0)
(2.8835 -0.0465495 0)
(2.8835 -0.0465522 0)
(2.8835 -0.0465585 0)
(2.8835 -0.0465716 0)
(2.88349 -0.0465972 0)
(2.88347 -0.0466442 0)
(2.88344 -0.046725 0)
(2.88339 -0.0468554 0)
(2.88332 -0.0470537 0)
(2.88321 -0.0473386 0)
(2.88305 -0.0477264 0)
(2.88285 -0.0482282 0)
(2.8826 -0.0488476 0)
(2.89701 -0.00832739 0)
(2.89143 -0.0238483 0)
(2.88693 -0.036416 0)
(2.88366 -0.0455474 0)
(2.88148 -0.0516614 0)
(2.88012 -0.0555068 0)
(2.87932 -0.0578081 0)
(2.87886 -0.05913 0)
(2.87861 -0.0598626 0)
(2.87847 -0.0602559 0)
(2.8784 -0.0604607 0)
(2.87837 -0.0605645 0)
(2.87835 -0.0606156 0)
(2.87835 -0.0606401 0)
(2.87834 -0.0606516 0)
(2.87834 -0.0606568 0)
(2.87834 -0.0606591 0)
(2.87834 -0.0606601 0)
(2.87834 -0.0606606 0)
(2.87834 -0.0606607 0)
(2.87834 -0.0606608 0)
(2.87834 -0.0606608 0)
(2.87834 -0.0606608 0)
(2.87834 -0.0606608 0)
(2.87834 -0.0606608 0)
(2.87834 -0.0606608 0)
(2.87834 -0.0606608 0)
(2.87834 -0.0606608 0)
(2.87834 -0.0606608 0)
(2.87834 -0.0606608 0)
(2.87834 -0.0606608 0)
(2.87834 -0.0606608 0)
(2.87834 -0.0606608 0)
(2.87834 -0.0606608 0)
(2.87834 -0.0606608 0)
(2.87834 -0.0606608 0)
(2.87834 -0.0606608 0)
(2.87834 -0.0606608 0)
(2.87834 -0.0606608 0)
(2.87834 -0.0606608 0)
(2.87834 -0.0606608 0)
(2.87834 -0.0606609 0)
(2.87834 -0.0606609 0)
(2.87834 -0.0606609 0)
(2.87834 -0.0606609 0)
(2.87834 -0.0606611 0)
(2.87834 -0.0606616 0)
(2.87834 -0.060663 0)
(2.87834 -0.0606662 0)
(2.87834 -0.0606732 0)
(2.87833 -0.0606879 0)
(2.87832 -0.0607164 0)
(2.8783 -0.0607681 0)
(2.87827 -0.0608559 0)
(2.87822 -0.0609966 0)
(2.87813 -0.061209 0)
(2.87801 -0.0615121 0)
(2.87785 -0.0619222 0)
(2.87764 -0.0624503 0)
(2.87737 -0.063099 0)
(2.89592 -0.0112939 0)
(2.88842 -0.0320623 0)
(2.8825 -0.0484605 0)
(2.87833 -0.0600422 0)
(2.87563 -0.0675911 0)
(2.87398 -0.0722288 0)
(2.87301 -0.0749508 0)
(2.87248 -0.07649 0)
(2.87219 -0.0773328 0)
(2.87203 -0.077781 0)
(2.87195 -0.0780129 0)
(2.87192 -0.0781297 0)
(2.8719 -0.0781871 0)
(2.87189 -0.0782146 0)
(2.87188 -0.0782275 0)
(2.87188 -0.0782333 0)
(2.87188 -0.0782359 0)
(2.87188 -0.0782371 0)
(2.87188 -0.0782376 0)
(2.87188 -0.0782378 0)
(2.87188 -0.0782378 0)
(2.87188 -0.0782379 0)
(2.87188 -0.0782379 0)
(2.87188 -0.0782379 0)
(2.87188 -0.0782379 0)
(2.87188 -0.0782379 0)
(2.87188 -0.0782379 0)
(2.87188 -0.0782379 0)
(2.87188 -0.0782379 0)
(2.87188 -0.0782379 0)
(2.87188 -0.0782379 0)
(2.87188 -0.0782379 0)
(2.87188 -0.0782379 0)
(2.87188 -0.0782379 0)
(2.87188 -0.0782379 0)
(2.87188 -0.0782379 0)
(2.87188 -0.0782379 0)
(2.87188 -0.0782379 0)
(2.87188 -0.0782379 0)
(2.87188 -0.0782379 0)
(2.87188 -0.0782379 0)
(2.87188 -0.0782379 0)
(2.87188 -0.0782379 0)
(2.87188 -0.0782379 0)
(2.87188 -0.078238 0)
(2.87188 -0.0782382 0)
(2.87188 -0.0782388 0)
(2.87188 -0.0782403 0)
(2.87188 -0.0782439 0)
(2.87188 -0.0782517 0)
(2.87187 -0.0782677 0)
(2.87186 -0.0782985 0)
(2.87184 -0.0783537 0)
(2.8718 -0.0784469 0)
(2.87175 -0.0785948 0)
(2.87166 -0.0788165 0)
(2.87154 -0.0791311 0)
(2.87137 -0.0795545 0)
(2.87115 -0.080097 0)
(2.87087 -0.0807608 0)
(2.89445 -0.0152942 0)
(2.88442 -0.0429379 0)
(2.87674 -0.0640956 0)
(2.87151 -0.078545 0)
(2.86822 -0.0876771 0)
(2.86627 -0.0931422 0)
(2.86515 -0.0962823 0)
(2.86454 -0.0980284 0)
(2.86421 -0.0989723 0)
(2.86404 -0.0994695 0)
(2.86395 -0.099725 0)
(2.86391 -0.0998532 0)
(2.86389 -0.0999159 0)
(2.86388 -0.0999459 0)
(2.86387 -0.09996 0)
(2.86387 -0.0999664 0)
(2.86387 -0.0999692 0)
(2.86387 -0.0999705 0)
(2.86387 -0.099971 0)
(2.86387 -0.0999712 0)
(2.86387 -0.0999713 0)
(2.86387 -0.0999713 0)
(2.86387 -0.0999713 0)
(2.86387 -0.0999713 0)
(2.86387 -0.0999713 0)
(2.86387 -0.0999713 0)
(2.86387 -0.0999713 0)
(2.86387 -0.0999713 0)
(2.86387 -0.0999713 0)