/*--------------------------------*- C++ -*----------------------------------*\
| =========                 |                                                 |
| \\      /  F ield         | OpenFOAM: The Open Source CFD Toolbox           |
|  \\    /   O peration     | Version:  2412                                  |
|   \\  /    A nd           | Website:  www.openfoam.com                      |
|    \\/     M anipulation  |                                                 |
\*---------------------------------------------------------------------------*/
FoamFile
{
    version     2.0;
    format      ascii;
    arch        "LSB;label=32;scalar=64";
    class       volScalarField;
    location    "0.035064";
    object      rho;
}
// * * * * * * * * * * * * * * * * * * * * * * * * * * * * * * * * * * * * * //

dimensions      [1 -3 0 0 0 0 0];

internalField   nonuniform List<scalar> 
100
(
0.298723
0.298727
0.298714
0.29876
0.298708
0.298756
0.298705
0.298701
0.298708
0.298524
0.298568
0.29829
0.298315
0.298099
0.298009
0.2979
0.297692
0.297637
0.297385
0.297342
0.297098
0.297028
0.296802
0.296691
0.296482
0.296341
0.296147
0.295987
0.295793
0.295594
0.295368
0.295135
0.29492
0.294766
0.294666
0.294649
0.294586
0.294548
0.294693
0.294653
0.295149
0.321999
0.612719
0.755993
0.745378
0.720738
0.727958
0.738524
0.753216
0.76777
0.779679
0.786879
0.78228
0.781817
0.791913
0.802479
0.814865
0.829725
0.843048
0.854111
0.854069
0.845839
0.83874
0.849404
0.856344
0.870618
0.889387
0.898857
0.910116
0.914112
0.922742
0.929864
0.931591
0.938466
0.944872
0.950446
0.95444
0.959994
0.968485
0.978552
0.985137
0.982826
0.985984
1.01041
1.06475
1.11235
1.14098
1.13668
1.10633
1.04766
0.97656
0.922281
0.895203
0.889375
0.888028
0.884298
0.883773
0.884812
0.890515
0.892604
)
;

boundaryField
{
    sides
    {
        type            calculated;
        value           nonuniform List<scalar> 2(0.892604 0.298723);
    }
    empty
    {
        type            empty;
    }
}


// ************************************************************************* //
