/*--------------------------------*- C++ -*----------------------------------*\
| =========                 |                                                 |
| \\      /  F ield         | OpenFOAM: The Open Source CFD Toolbox           |
|  \\    /   O peration     | Version:  2412                                  |
|   \\  /    A nd           | Website:  www.openfoam.com                      |
|    \\/     M anipulation  |                                                 |
\*---------------------------------------------------------------------------*/
FoamFile
{
    version     2.0;
    format      ascii;
    arch        "LSB;label=32;scalar=64";
    class       surfaceScalarField;
    location    "0.0360627";
    object      phiRhoY_Y_N2;
}
// * * * * * * * * * * * * * * * * * * * * * * * * * * * * * * * * * * * * * //

dimensions      [1 0 -1 0 0 0 0];

internalField   nonuniform List<scalar> 
99
(
4.3035
8.6028
12.8991
17.1913
21.4809
25.7739
30.0644
34.3628
38.6555
42.9469
47.2343
51.5135
55.7939
60.0617
64.3316
68.5909
72.8438
77.09
81.3273
85.5598
89.7851
94.0119
98.2339
102.456
106.665
110.862
115.044
119.221
123.399
127.574
131.728
135.832
139.873
143.844
147.774
151.918
156.673
156.56
-106.309
-404.409
-401.016
-346.645
-341.269
-349.367
-370.47
-374.987
-375.13
-355.184
-330.052
-323.914
-322.248
-327.486
-334.725
-342.591
-346.012
-342.476
-314.042
-278.791
-259.418
-258.407
-262.235
-268.224
-270.141
-269.554
-265.935
-256.186
-244.859
-235.311
-228.691
-226.14
-218.517
-203.166
-181.919
-170.906
-173.384
-181.452
-179.404
-159.792
-131.746
-115.729
-114.324
-129.945
-143.221
-145.607
-118.812
-80.7078
-20.9566
39.0412
43.6803
23.9894
7.04573
0.888323
-0.0471214
-0.0206374
-0.0027682
-0.000141299
-6.62478e-07
7.26567e-08
0
)
;

boundaryField
{
    sides
    {
        type            calculated;
        value           uniform 0;
    }
    empty
    {
        type            empty;
    }
}


// ************************************************************************* //
