/*--------------------------------*- C++ -*----------------------------------*\
| =========                 |                                                 |
| \\      /  F ield         | OpenFOAM: The Open Source CFD Toolbox           |
|  \\    /   O peration     | Version:  2412                                  |
|   \\  /    A nd           | Website:  www.openfoam.com                      |
|    \\/     M anipulation  |                                                 |
\*---------------------------------------------------------------------------*/
FoamFile
{
    version     2.0;
    format      ascii;
    arch        "LSB;label=32;scalar=64";
    class       volVectorField;
    location    "0.0360627";
    object      U;
}
// * * * * * * * * * * * * * * * * * * * * * * * * * * * * * * * * * * * * * //

dimensions      [0 1 -1 0 0 0 0];

internalField   nonuniform List<vector> 
100
(
(1.81453 0 0)
(5.62347 0 0)
(9.23461 0 0)
(13.0873 0 0)
(16.5977 0 0)
(20.5636 0 0)
(23.9563 0 0)
(28.0188 0 0)
(31.3538 0 0)
(35.3812 0 0)
(38.8684 0 0)
(42.6775 0 0)
(46.4554 0 0)
(50.0336 0 0)
(54.0013 0 0)
(57.4206 0 0)
(61.431 0 0)
(64.8424 0 0)
(68.8193 0 0)
(72.3088 0 0)
(76.2057 0 0)
(79.7773 0 0)
(83.599 0 0)
(87.2331 0 0)
(91.001 0 0)
(94.6657 0 0)
(98.3915 0 0)
(102.071 0 0)
(105.784 0 0)
(109.475 0 0)
(113.181 0 0)
(116.828 0 0)
(120.454 0 0)
(123.989 0 0)
(127.486 0 0)
(131.027 0 0)
(134.835 0 0)
(137.736 0 0)
(53.3576 0 0)
(-116.769 0 0)
(-143.793 0 0)
(-132.019 0 0)
(-123.761 0 0)
(-123.461 0 0)
(-127.445 0 0)
(-128.264 0 0)
(-126.641 0 0)
(-121.826 0 0)
(-114.353 0 0)
(-109.549 0 0)
(-108.172 0 0)
(-107.973 0 0)
(-108.458 0 0)
(-108.838 0 0)
(-108.45 0 0)
(-106.676 0 0)
(-100.182 0 0)
(-90.8893 0 0)
(-83.7206 0 0)
(-80.9713 0 0)
(-81.1661 0 0)
(-81.3982 0 0)
(-81.8396 0 0)
(-79.3128 0 0)
(-79.382 0 0)
(-74.7358 0 0)
(-71.6575 0 0)
(-68.7039 0 0)
(-65.6511 0 0)
(-65.5862 0 0)
(-60.4534 0 0)
(-59.0686 0 0)
(-52.1784 0 0)
(-48.6453 0 0)
(-47.6946 0 0)
(-47.7112 0 0)
(-49.4369 0 0)
(-44.5771 0 0)
(-38.994 0 0)
(-32.6805 0 0)
(-30.7869 0 0)
(-32.6014 0 0)
(-35.6953 0 0)
(-37.2758 0 0)
(-32.3079 0 0)
(-24.1545 0 0)
(-13.9971 0 0)
(0.763256 0 0)
(10.1875 0 0)
(10.6165 0 0)
(9.31921 0 0)
(7.67565 0 0)
(2.72217 0 0)
(-2.1775 0 0)
(-3.76373 0 0)
(-2.78657 0 0)
(-0.404036 0 0)
(0.331968 0 0)
(1.28329 0 0)
(-0.398229 0 0)
)
;

boundaryField
{
    sides
    {
        type            fixedValue;
        value           uniform (0 0 0);
    }
    empty
    {
        type            empty;
    }
}


// ************************************************************************* //
