/*--------------------------------*- C++ -*----------------------------------*\
| =========                 |                                                 |
| \\      /  F ield         | OpenFOAM: The Open Source CFD Toolbox           |
|  \\    /   O peration     | Version:  2412                                  |
|   \\  /    A nd           | Website:  www.openfoam.com                      |
|    \\/     M anipulation  |                                                 |
\*---------------------------------------------------------------------------*/
FoamFile
{
    version     2.0;
    format      ascii;
    arch        "LSB;label=32;scalar=64";
    class       volScalarField;
    location    "0.0448606";
    object      TTR;
}
// * * * * * * * * * * * * * * * * * * * * * * * * * * * * * * * * * * * * * //

dimensions      [0 0 0 1 0 0 0];

internalField   nonuniform List<scalar> 
100
(
200
200
200
200
203.138
237.436
247.997
252.327
249.748
254.95
255.136
259.316
256.828
259.686
255.497
254.761
250.78
252.929
251.82
254.687
256.732
259.761
260.042
261.421
261.021
260.705
260.472
261.393
262.401
263.948
264.516
264.942
264.191
263.19
263.272
264.038
265.633
267.003
267.51
267.438
266.178
265.346
265.779
266.771
269.441
270.957
271.407
271.259
269.362
267.365
267.069
267.814
268.839
270.83
272.387
273.09
273.517
273.669
273.737
273.945
274.832
274.863
275.287
274.851
276.006
276.107
277.915
278.623
278.866
279.547
277.359
282.084
279.584
288.81
286.213
290.609
288.885
286.072
284.891
275.628
280.193
272.457
278.014
276.097
283.269
293.547
311.497
339.87
363.61
379.413
384.632
390.511
388.658
392.41
387.828
391.392
388.027
389.828
388.553
389.117
)
;

boundaryField
{
    sides
    {
        type            zeroGradient;
    }
    empty
    {
        type            empty;
    }
}


// ************************************************************************* //
