/*--------------------------------*- C++ -*----------------------------------*\
| =========                 |                                                 |
| \\      /  F ield         | OpenFOAM: The Open Source CFD Toolbox           |
|  \\    /   O peration     | Version:  2412                                  |
|   \\  /    A nd           | Website:  www.openfoam.com                      |
|    \\/     M anipulation  |                                                 |
\*---------------------------------------------------------------------------*/
FoamFile
{
    version     2.0;
    format      ascii;
    arch        "LSB;label=32;scalar=64";
    class       volScalarField;
    location    "0.0190086";
    object      rhoY_Y_N2;
}
// * * * * * * * * * * * * * * * * * * * * * * * * * * * * * * * * * * * * * //

dimensions      [1 -3 0 0 0 0 0];

internalField   nonuniform List<scalar> 
100
(
0.720822
0.721103
0.721508
0.721268
0.720423
0.719163
0.717894
0.717175
0.717196
0.718666
0.722697
0.729373
0.736967
0.742804
0.745751
0.744912
0.735246
0.721518
0.708526
0.695959
0.686229
0.676864
0.6687
0.659125
0.650016
0.640867
0.631659
0.623069
0.614046
0.605851
0.596831
0.588625
0.579992
0.572001
0.563482
0.555335
0.547226
0.539542
0.531719
0.523784
0.515903
0.508547
0.502019
0.494839
0.4869
0.480187
0.475264
0.468757
0.462882
0.720778
0.516277
0.510608
0.502986
0.495599
0.490814
0.495139
0.499995
0.490772
0.470305
0.470725
0.502644
0.515444
0.481089
0.444744
0.456998
0.518516
0.533103
0.474794
0.428687
0.445328
0.520051
0.541286
0.48575
0.425755
0.432262
0.502068
0.541041
0.512529
0.43882
0.435327
0.745901
1.09699
1.04196
1.04276
1.06254
1.00998
1.01879
1.14142
0.946162
0.532096
0.208455
0.0606429
0.0137798
0.00263292
0.000434469
5.8223e-05
5.62984e-06
3.19343e-07
7.2856e-09
-4.48079e-11
)
;

boundaryField
{
    sides
    {
        type            calculated;
        value           nonuniform List<scalar> 2(0 1.12308);
    }
    empty
    {
        type            empty;
    }
}


// ************************************************************************* //
