/*--------------------------------*- C++ -*----------------------------------*\
| =========                 |                                                 |
| \\      /  F ield         | OpenFOAM: The Open Source CFD Toolbox           |
|  \\    /   O peration     | Version:  2412                                  |
|   \\  /    A nd           | Website:  www.openfoam.com                      |
|    \\/     M anipulation  |                                                 |
\*---------------------------------------------------------------------------*/
FoamFile
{
    version     2.0;
    format      ascii;
    arch        "LSB;label=32;scalar=64";
    class       surfaceScalarField;
    location    "0.0288078";
    object      phiRhoY_Y_N2;
}
// * * * * * * * * * * * * * * * * * * * * * * * * * * * * * * * * * * * * * //

dimensions      [1 0 -1 0 0 0 0];

internalField   nonuniform List<scalar> 
99
(
7.64241
15.2802
22.9078
30.5098
38.0955
45.6697
53.2429
60.8092
68.3741
75.9566
83.5342
91.1326
98.7178
106.288
113.86
121.409
128.969
136.508
144.043
151.561
159.061
166.553
174.024
181.477
188.887
196.275
203.639
210.989
218.311
225.599
232.846
240.072
247.283
254.485
261.672
268.825
275.885
282.845
289.79
296.678
303.279
309.837
316.763
323.89
330.76
337.656
345.13
352.164
357.301
361.557
367.341
373.46
375.799
376.877
380.021
395.776
415.972
423.196
426.682
342.67
-48.7998
-88.8605
-53.0135
6.88935
22.2169
24.4992
6.77761
-10.1763
-0.927727
13.5496
20.9422
16.257
-2.38275
-21.4183
-20.9857
-5.55407
16.2225
29.2029
27.2075
-0.248969
-25.6906
-22.0545
-14.8482
-0.952293
8.05833
9.74633
7.19506
5.98124
3.67046
2.67673
1.8017
0.271055
-0.0732511
-0.020862
-0.00293548
-0.000169107
1.54663e-06
1.838e-07
0
)
;

boundaryField
{
    sides
    {
        type            calculated;
        value           uniform 0;
    }
    empty
    {
        type            empty;
    }
}


// ************************************************************************* //
