/*--------------------------------*- C++ -*----------------------------------*\
| =========                 |                                                 |
| \\      /  F ield         | OpenFOAM: The Open Source CFD Toolbox           |
|  \\    /   O peration     | Version:  2412                                  |
|   \\  /    A nd           | Website:  www.openfoam.com                      |
|    \\/     M anipulation  |                                                 |
\*---------------------------------------------------------------------------*/
FoamFile
{
    version     2.0;
    format      ascii;
    arch        "LSB;label=32;scalar=64";
    class       volVectorField;
    location    "3.1288e-05";
    object      U;
}
// * * * * * * * * * * * * * * * * * * * * * * * * * * * * * * * * * * * * * //

dimensions      [0 1 -1 0 0 0 0];

internalField   nonuniform List<vector> 
1800
(
(2.9 -2.19778e-14 0)
(2.9 2.90378e-14 0)
(2.9 2.06181e-14 0)
(2.9 -9.29778e-15 0)
(2.9 -1.34376e-14 0)
(2.9 -3.63905e-14 0)
(2.9 -5.25389e-14 0)
(2.9 -2.14129e-14 0)
(2.9 1.07482e-14 0)
(2.9 -3.73972e-15 0)
(2.9 -1.55951e-15 0)
(2.9 -2.22429e-14 0)
(2.9 -3.91519e-14 0)
(2.9 -5.21452e-15 0)
(2.9 -4.58853e-14 0)
(2.9 -1.16785e-14 0)
(2.9 4.8407e-15 0)
(2.9 -7.86481e-15 0)
(2.9 -3.29868e-14 0)
(2.9 -4.37582e-15 0)
(2.9 -2.93666e-14 0)
(2.9 5.01036e-16 0)
(2.9 -8.87242e-15 0)
(2.9 7.04754e-16 0)
(2.9 3.72737e-16 0)
(2.9 -1.83494e-14 0)
(2.9 -1.41997e-14 0)
(2.9 -9.36899e-15 0)
(2.9 1.75352e-14 0)
(2.9 3.11456e-14 0)
(2.9 2.21487e-14 0)
(2.9 2.58041e-14 0)
(2.9 -1.42365e-14 0)
(2.9 -5.92916e-14 0)
(2.9 6.79342e-15 0)
(2.9 -1.28974e-15 0)
(2.9 1.223e-14 0)
(2.9 4.32323e-14 0)
(2.9 -4.65131e-15 0)
(2.9 -2.60142e-15 0)
(2.9 1.7328e-15 0)
(2.9 1.13228e-14 0)
(2.9 -3.33992e-15 0)
(2.9 2.19325e-15 0)
(2.9 -1.06195e-14 0)
(2.9 4.15599e-15 0)
(2.9 4.66904e-14 0)
(2.9 5.43624e-14 0)
(2.9 7.03825e-15 0)
(2.9 3.10362e-14 0)
(2.9 6.12253e-15 0)
(2.9 5.86593e-15 0)
(2.9 2.42343e-14 0)
(2.9 -1.70137e-14 0)
(2.9 2.28159e-14 0)
(2.9 1.25334e-14 0)
(2.9 -2.96584e-14 0)
(2.9 8.04302e-15 0)
(2.9 -2.31032e-14 0)
(2.9 -3.0743e-14 0)
(2.9 -5.27903e-14 0)
(2.9 1.31198e-14 0)
(2.9 2.99184e-15 0)
(2.9 -3.08185e-14 0)
(2.9 -4.25842e-14 0)
(2.9 -1.1972e-13 0)
(2.9 -1.00481e-13 0)
(2.9 -4.13816e-14 0)
(2.9 -1.96318e-14 0)
(2.9 -2.06246e-14 0)
(2.9 9.57163e-15 0)
(2.9 -1.01743e-14 0)
(2.9 -1.12754e-15 0)
(2.9 -6.62272e-15 0)
(2.9 -4.33281e-14 0)
(2.9 9.89197e-15 0)
(2.9 1.03637e-14 0)
(2.9 -1.20182e-15 0)
(2.9 -5.83563e-14 0)
(2.9 1.07251e-15 0)
(2.9 -2.58872e-14 0)
(2.9 -3.02658e-14 0)
(2.9 -2.67564e-15 0)
(2.9 2.27928e-14 0)
(2.9 -3.15955e-14 0)
(2.9 -4.58215e-14 0)
(2.9 -4.90523e-14 0)
(2.9 -4.39771e-14 0)
(2.9 4.85853e-14 0)
(2.9 6.07502e-14 0)
(2.9 1.09697e-14 0)
(2.9 3.73201e-14 0)
(2.9 -4.43582e-14 0)
(2.9 -8.75643e-14 0)
(2.9 1.2167e-14 0)
(2.9 -1.02796e-14 0)
(2.9 2.80732e-14 0)
(2.9 5.93689e-14 0)
(2.9 1.12935e-14 0)
(2.9 -8.57426e-15 0)
(2.9 -1.50877e-14 0)
(2.9 2.3333e-14 0)
(2.9 -4.68578e-15 0)
(2.9 -1.61298e-14 0)
(2.9 -9.59137e-15 0)
(2.9 1.92415e-14 0)
(2.9 5.09502e-14 0)
(2.9 2.65062e-14 0)
(2.9 3.75261e-14 0)
(2.9 7.94501e-14 0)
(2.9 8.19387e-15 0)
(2.9 -2.53659e-14 0)
(2.9 2.28569e-14 0)
(2.9 -2.28636e-14 0)
(2.9 3.94761e-15 0)
(2.9 2.68726e-14 0)
(2.9 -5.41961e-14 0)
(2.9 1.55281e-14 0)
(2.9 -6.70982e-14 0)
(2.9 -2.33588e-15 0)
(2.9 -9.30667e-15 0)
(2.9 5.25378e-15 0)
(2.9 -1.56744e-14 0)
(2.9 2.31216e-14 0)
(2.9 3.03012e-15 0)
(2.9 -6.25681e-14 0)
(2.9 -5.22352e-14 0)
(2.9 -3.53102e-14 0)
(2.9 1.75937e-15 0)
(2.9 -4.28577e-14 0)
(2.9 -7.81492e-15 0)
(2.9 -2.46072e-15 0)
(2.9 8.28631e-15 0)
(2.9 -2.4765e-14 0)
(2.9 2.1783e-14 0)
(2.9 5.21516e-14 0)
(2.9 2.06147e-14 0)
(2.9 1.96769e-14 0)
(2.9 1.68585e-14 0)
(2.9 -4.29888e-14 0)
(2.9 6.91445e-15 0)
(2.9 2.65926e-14 0)
(2.9 4.33601e-14 0)
(2.9 1.33761e-14 0)
(2.9 -4.94535e-14 0)
(2.9 -5.61646e-14 0)
(2.9 -4.90408e-14 0)
(2.9 -1.312e-14 0)
(2.9 -1.33319e-14 0)
(2.9 -1.31954e-14 0)
(2.9 1.57811e-14 0)
(2.9 2.52234e-15 0)
(2.9 -4.17073e-14 0)
(2.9 -2.63092e-14 0)
(2.9 -1.7926e-14 0)
(2.9 -1.31611e-14 0)
(2.9 1.7329e-14 0)
(2.9 2.46067e-14 0)
(2.9 -2.00893e-14 0)
(2.9 -2.08028e-14 0)
(2.9 -1.61738e-14 0)
(2.9 -2.30005e-14 0)
(2.9 -1.97576e-14 0)
(2.9 -4.17027e-14 0)
(2.9 1.9246e-14 0)
(2.9 3.46918e-15 0)
(2.9 2.0616e-15 0)
(2.9 1.66783e-15 0)
(2.9 1.59596e-14 0)
(2.9 1.16014e-15 0)
(2.9 -1.87217e-14 0)
(2.9 8.18425e-15 0)
(2.9 -5.89098e-15 0)
(2.9 6.38801e-15 0)
(2.9 -9.08328e-16 0)
(2.9 -1.91491e-14 0)
(2.9 3.30092e-14 0)
(2.9 3.14028e-14 0)
(2.9 -2.2264e-14 0)
(2.9 -3.69752e-14 0)
(2.9 -8.20055e-15 0)
(2.9 -2.95435e-14 0)
(2.9 1.03879e-14 0)
(2.9 9.4487e-15 0)
(2.9 -4.77988e-15 0)
(2.9 -1.777e-14 0)
(2.9 -3.58159e-14 0)
(2.9 -4.52385e-14 0)
(2.9 -1.19323e-15 0)
(2.9 -3.09419e-14 0)
(2.9 9.61437e-15 0)
(2.9 -2.65529e-14 0)
(2.9 -7.09156e-15 0)
(2.9 -2.41796e-14 0)
(2.9 1.34466e-14 0)
(2.9 1.85972e-14 0)
(2.9 -5.1032e-15 0)
(2.9 1.04823e-14 0)
(2.9 2.9224e-14 0)
(2.9 -1.25455e-14 0)
(2.9 3.56104e-14 0)
(2.9 4.99968e-14 0)
(2.9 5.89272e-15 0)
(2.9 -9.81246e-15 0)
(2.9 -1.15297e-14 0)
(2.9 -1.09537e-14 0)
(2.9 3.57314e-14 0)
(2.9 8.07277e-15 0)
(2.9 -1.88649e-14 0)
(2.9 1.56392e-15 0)
(2.9 1.09063e-14 0)
(2.9 2.93699e-14 0)
(2.9 -1.30947e-14 0)
(2.9 7.35603e-15 0)
(2.9 -1.67098e-14 0)
(2.9 1.28523e-14 0)
(2.9 2.36618e-14 0)
(2.9 2.18449e-14 0)
(2.9 3.2809e-15 0)
(2.9 -2.16969e-14 0)
(2.9 -1.05638e-14 0)
(2.9 -2.29468e-14 0)
(2.9 -1.7002e-14 0)
(2.9 -1.88063e-14 0)
(2.9 -7.32722e-15 0)
(2.9 -3.75551e-14 0)
(2.9 -4.74402e-15 0)
(2.9 -1.41963e-14 0)
(2.9 -3.01863e-14 0)
(2.9 -3.81015e-14 0)
(2.9 -2.50035e-14 0)
(2.9 -2.46923e-15 0)
(2.9 3.14613e-14 0)
(2.9 2.43731e-14 0)
(2.9 -1.00092e-14 0)
(2.9 -5.83077e-17 0)
(2.9 2.74232e-14 0)
(2.9 3.36222e-14 0)
(2.9 2.20667e-14 0)
(2.9 1.42927e-14 0)
(2.9 -2.04402e-14 0)
(2.9 -6.73195e-14 0)
(2.9 2.17646e-15 0)
(2.9 -4.88005e-15 0)
(2.9 3.36055e-15 0)
(2.9 -2.89508e-14 0)
(2.9 -4.71538e-14 0)
(2.9 -6.11398e-14 0)
(2.9 -2.07294e-14 0)
(2.9 -5.90027e-15 0)
(2.9 8.43017e-15 0)
(2.9 -9.24733e-16 0)
(2.9 7.56056e-15 0)
(2.9 3.38075e-14 0)
(2.9 4.99668e-14 0)
(2.9 -2.67784e-14 0)
(2.9 -1.57894e-15 0)
(2.9 7.45454e-15 0)
(2.9 2.57009e-14 0)
(2.9 3.25988e-14 0)
(2.9 4.12648e-14 0)
(2.9 -6.14788e-15 0)
(2.9 -5.47313e-14 0)
(2.9 -3.02354e-14 0)
(2.9 2.22357e-14 0)
(2.9 1.42004e-14 0)
(2.9 5.51575e-14 0)
(2.9 4.67826e-15 0)
(2.9 -5.10334e-14 0)
(2.9 1.37403e-14 0)
(2.9 2.73611e-14 0)
(2.9 4.27827e-14 0)
(2.9 6.41965e-14 0)
(2.9 2.67556e-14 0)
(2.9 -2.31287e-14 0)
(2.9 1.65097e-14 0)
(2.9 8.51784e-15 0)
(2.9 4.06905e-15 0)
(2.9 3.03489e-14 0)
(2.9 -1.11973e-14 0)
(2.9 -5.1444e-15 0)
(2.9 -2.28735e-14 0)
(2.9 -5.046e-14 0)
(2.9 8.86702e-15 0)
(2.9 2.227e-14 0)
(2.9 -4.88273e-14 0)
(2.9 -1.31522e-14 0)
(2.9 6.17359e-15 0)
(2.9 -4.08442e-14 0)
(2.9 -3.55528e-15 0)
(2.9 2.4352e-14 0)
(2.9 -1.44733e-14 0)
(2.9 2.39831e-14 0)
(2.9 2.7931e-14 0)
(2.9 3.92674e-14 0)
(2.9 2.37413e-14 0)
(2.9 3.77834e-15 0)
(2.9 2.68111e-14 0)
(2.9 1.36522e-14 0)
(2.9 7.06928e-14 0)
(2.9 1.04782e-14 0)
(2.9 -1.8805e-14 0)
(2.9 -9.64766e-15 0)
(2.9 8.75547e-15 0)
(2.9 3.27542e-14 0)
(2.9 -1.20636e-14 0)
(2.9 3.56512e-15 0)
(2.9 9.11818e-15 0)
(2.9 9.3418e-15 0)
(2.9 -2.43403e-14 0)
(2.9 -5.62451e-14 0)
(2.9 9.96277e-15 0)
(2.9 4.10022e-14 0)
(2.9 3.21884e-14 0)
(2.9 -2.20812e-15 0)
(2.9 -1.07255e-15 0)
(2.9 -3.96022e-14 0)
(2.9 1.2754e-14 0)
(2.9 3.90661e-14 0)
(2.9 4.47971e-16 0)
(2.9 -2.60162e-14 0)
(2.9 -3.343e-14 0)
(2.9 -5.72175e-15 0)
(2.9 -2.64199e-14 0)
(2.9 9.94473e-15 0)
(2.9 1.39924e-14 0)
(2.9 3.56429e-14 0)
(2.9 1.56059e-15 0)
(2.9 1.16312e-14 0)
(2.9 -4.72788e-15 0)
(2.9 -2.68164e-14 0)
(2.9 2.97121e-14 0)
(2.9 2.70108e-14 0)
(2.9 -4.9034e-15 0)
(2.9 -2.74256e-15 0)
(2.9 -5.12407e-14 0)
(2.9 -5.56296e-14 0)
(2.9 -2.72663e-14 0)
(2.9 -2.25167e-14 0)
(2.9 1.05205e-14 0)
(2.9 -3.79019e-14 0)
(2.9 -2.43863e-14 0)
(2.9 -3.82359e-14 0)
(2.9 -9.87092e-15 0)
(2.9 -9.02653e-15 0)
(2.9 3.50472e-14 0)
(2.9 1.49707e-15 0)
(2.9 -3.15296e-15 0)
(2.9 1.14552e-14 0)
(2.9 2.8627e-15 0)
(2.9 3.4834e-14 0)
(2.9 2.44691e-14 0)
(2.9 -2.51754e-14 0)
(2.9 -9.20891e-15 0)
(2.9 6.2913e-15 0)
(2.9 1.49947e-14 0)
(2.9 1.97043e-15 0)
(2.9 6.94934e-15 0)
(2.9 -3.46018e-14 0)
(2.9 -1.85707e-14 0)
(2.9 -1.35724e-14 0)
(2.9 -8.58928e-16 0)
(2.9 -4.46138e-14 0)
(2.9 -6.65979e-15 0)
(2.9 4.06401e-14 0)
(2.9 3.74616e-14 0)
(2.9 5.33801e-14 0)
(2.9 3.59454e-14 0)
(2.9 -1.52667e-15 0)
(2.9 -1.28564e-14 0)
(2.9 -2.42569e-14 0)
(2.9 -1.09535e-14 0)
(2.9 2.22547e-15 0)
(2.9 -4.90825e-15 0)
(2.9 -4.83574e-15 0)
(2.9 1.31819e-14 0)
(2.9 -3.10337e-14 0)
(2.9 1.9365e-14 0)
(2.9 -1.42692e-14 0)
(2.9 2.66652e-14 0)
(2.9 -3.26007e-14 0)
(2.9 -2.97847e-14 0)
(2.9 9.41621e-15 0)
(2.9 4.44028e-15 0)
(2.9 -1.89834e-16 0)
(2.9 8.33902e-15 0)
(2.9 3.08597e-14 0)
(2.9 4.90289e-15 0)
(2.9 6.83495e-14 0)
(2.9 2.99129e-14 0)
(2.9 -3.51094e-14 0)
(2.9 7.90362e-15 0)
(2.9 -9.29936e-15 0)
(2.9 -6.5562e-15 0)
(2.9 6.04388e-15 0)
(2.9 -8.18312e-14 0)
(2.9 -5.94895e-14 0)
(2.9 -2.3471e-14 0)
(2.9 -4.33428e-14 0)
(2.9 -3.13844e-14 0)
(2.9 -3.41094e-14 0)
(2.9 1.55034e-14 0)
(2.9 3.51096e-14 0)
(2.9 5.13531e-14 0)
(2.9 1.07445e-14 0)
(2.9 -7.15845e-16 0)
(2.9 -3.66133e-14 0)
(2.9 -6.22241e-15 0)
(2.9 -1.0028e-14 0)
(2.9 1.94539e-15 0)
(2.9 3.38288e-15 0)
(2.9 -3.97882e-15 0)
(2.9 -1.18062e-14 0)
(2.9 -3.53157e-14 0)
(2.9 -2.89092e-14 0)
(2.9 -1.48703e-16 0)
(2.9 -1.07583e-14 0)
(2.9 -2.03712e-14 0)
(2.9 -2.95595e-14 0)
(2.9 -1.92443e-14 0)
(2.9 5.39777e-15 0)
(2.9 6.42329e-14 0)
(2.9 -3.23827e-14 0)
(2.9 1.22883e-14 0)
(2.9 1.32539e-14 0)
(2.9 6.10602e-14 0)
(2.9 6.84874e-14 0)
(2.9 2.61129e-14 0)
(2.9 1.78909e-14 0)
(2.9 -2.67896e-15 0)
(2.9 -3.76685e-14 0)
(2.9 -5.33172e-14 0)
(2.9 -1.59357e-14 0)
(2.9 -3.51798e-14 0)
(2.9 -1.6847e-14 0)
(2.9 2.31657e-14 0)
(2.9 4.28947e-14 0)
(2.9 1.5009e-15 0)
(2.9 -1.23163e-14 0)
(2.9 -4.62702e-14 0)
(2.9 -1.44958e-14 0)
(2.9 1.32747e-14 0)
(2.9 2.93318e-14 0)
(2.9 6.75429e-15 0)
(2.9 1.62378e-15 0)
(2.9 -9.99161e-15 0)
(2.9 2.2512e-14 0)
(2.9 2.12073e-14 0)
(2.9 5.58647e-14 0)
(2.9 -1.16733e-14 0)
(2.9 -4.31532e-15 0)
(2.9 2.16625e-14 0)
(2.9 1.43238e-14 0)
(2.9 1.79932e-14 0)
(2.9 -7.98874e-15 0)
(2.9 -2.46177e-14 0)
(2.9 -5.40698e-15 0)
(2.9 1.82614e-15 0)
(2.9 9.07441e-15 0)
(2.9 -5.34753e-14 0)
(2.9 -7.18543e-15 0)
(2.9 3.87434e-14 0)
(2.9 6.65618e-14 0)
(2.9 6.69225e-14 0)
(2.9 2.64419e-14 0)
(2.9 -2.48421e-14 0)
(2.9 -7.22223e-15 0)
(2.9 6.69761e-15 0)
(2.9 1.19323e-14 0)
(2.9 -1.27065e-14 0)
(2.9 1.4739e-14 0)
(2.9 -8.75346e-16 0)
(2.9 -1.23739e-14 0)
(2.9 -2.90408e-15 0)
(2.9 -5.51287e-14 0)
(2.9 -1.92355e-14 0)
(2.9 -3.91929e-14 0)
(2.9 1.01162e-14 0)
(2.9 -1.97268e-14 0)
(2.9 -2.51448e-14 0)
(2.9 -1.08114e-14 0)
(2.9 2.31664e-14 0)
(2.9 2.56107e-15 0)
(2.9 9.71189e-15 0)
(2.9 -1.89684e-14 0)
(2.9 1.78151e-14 0)
(2.9 4.39917e-14 0)
(2.9 -1.76719e-14 0)
(2.9 -3.05331e-15 0)
(2.9 1.77966e-14 0)
(2.9 -2.21375e-14 0)
(2.9 -5.25272e-14 0)
(2.9 -4.03306e-14 0)
(2.9 -3.96343e-14 0)
(2.9 -4.46513e-14 0)
(2.9 6.59524e-16 0)
(2.9 1.46003e-14 0)
(2.9 -4.52369e-15 0)
(2.9 -9.87337e-15 0)
(2.9 -7.0536e-14 0)
(2.9 2.21013e-14 0)
(2.9 3.7388e-14 0)
(2.9 -1.07397e-14 0)
(2.9 1.65134e-15 0)
(2.9 1.74807e-14 0)
(2.9 -4.91682e-15 0)
(2.9 8.83071e-15 0)
(2.9 3.79973e-15 0)
(2.9 3.52607e-14 0)
(2.9 -2.24579e-14 0)
(2.9 1.19603e-14 0)
(2.9 -8.56802e-15 0)
(2.9 2.69638e-14 0)
(2.9 1.08783e-14 0)
(2.9 -5.29977e-14 0)
(2.9 1.24015e-14 0)
(2.9 3.52623e-14 0)
(2.9 3.5348e-14 0)
(2.9 3.19435e-14 0)
(2.9 4.52225e-14 0)
(2.9 2.22811e-14 0)
(2.9 5.03412e-14 0)
(2.9 3.27493e-14 0)
(2.9 4.05717e-14 0)
(2.9 2.19163e-14 0)
(2.9 3.35663e-14 0)
(2.9 -8.02681e-15 0)
(2.9 -2.71851e-15 0)
(2.9 2.12685e-14 0)
(2.9 -3.84861e-14 0)
(2.9 7.32128e-15 0)
(2.9 3.65921e-14 0)
(2.9 -2.41335e-14 0)
(2.9 -2.14438e-14 0)
(2.9 3.86372e-14 0)
(2.9 -2.78802e-14 0)
(2.9 -7.64095e-15 0)
(2.9 1.47323e-14 0)
(2.9 -4.51733e-15 0)
(2.9 1.16176e-14 0)
(2.9 -5.25299e-14 0)
(2.9 -1.83038e-14 0)
(2.9 -4.54331e-15 0)
(2.9 -1.28602e-14 0)
(2.9 2.85148e-15 0)
(2.9 3.68052e-15 0)
(2.9 -1.35843e-14 0)
(2.9 6.8085e-15 0)
(2.9 -1.0137e-15 0)
(2.9 -2.47857e-15 0)
(2.9 1.21586e-14 0)
(2.9 1.01957e-15 0)
(2.9 -6.71258e-14 0)
(2.9 -3.20715e-15 0)
(2.9 -2.75172e-14 0)
(2.9 -5.6816e-15 0)
(2.9 1.35977e-14 0)
(2.9 3.70895e-14 0)
(2.9 1.43409e-14 0)
(2.9 -2.1658e-14 0)
(2.9 7.94622e-16 0)
(2.9 6.59258e-15 0)
(2.9 -1.80374e-14 0)
(2.9 6.81358e-15 0)
(2.9 2.94267e-15 0)
(2.9 5.35065e-15 0)
(2.9 -6.13369e-16 0)
(2.9 1.39658e-15 0)
(2.9 -4.08744e-15 0)
(2.9 4.51568e-14 0)
(2.9 1.50871e-14 0)
(2.9 -3.50369e-14 0)
(2.9 2.781e-14 0)
(2.9 -9.55518e-15 0)
(2.9 -1.16661e-14 0)
(2.9 3.11199e-14 0)
(2.9 1.90377e-14 0)
(2.9 1.21115e-14 0)
(2.9 6.73054e-15 0)
(2.9 4.77027e-14 0)
(2.9 1.77658e-14 0)
(2.9 5.5407e-15 0)
(2.9 9.87596e-15 0)
(2.9 -1.32534e-14 0)
(2.9 9.77911e-16 0)
(2.9 3.98494e-14 0)
(2.9 -2.9199e-14 0)
(2.9 -2.05201e-14 0)
(2.9 5.80229e-15 0)
(2.9 3.28166e-14 0)
(2.9 -2.3467e-14 0)
(2.9 7.22724e-15 0)
(2.9 2.32546e-16 0)
(2.9 -3.33617e-14 0)
(2.9 4.139e-14 0)
(2.9 -3.11684e-14 0)
(2.9 8.95788e-16 0)
(2.9 -3.94458e-14 0)
(2.9 4.77415e-15 0)
(2.9 1.56598e-14 0)
(2.9 -1.16676e-14 0)
(2.9 -3.78306e-14 0)
(2.9 3.89624e-14 0)
(2.9 -7.78701e-15 0)
(2.9 -1.1665e-14 0)
(2.9 1.05476e-14 0)
(2.9 1.76807e-14 0)
(2.9 5.78171e-14 0)
(2.9 5.38665e-14 0)
(2.9 2.64548e-15 0)
(2.9 2.93134e-14 0)
(2.9 3.47528e-14 0)
(2.9 2.17503e-14 0)
(2.9 2.64464e-14 0)
(2.9 2.50444e-14 0)
(2.9 2.94409e-14 0)
(2.9 -6.21727e-15 0)
(2.9 2.85462e-14 0)
(2.9 1.5585e-14 0)
(2.9 -1.13135e-14 0)
(2.9 -4.40144e-14 0)
(2.9 -1.77864e-14 0)
(2.9 -1.00749e-15 0)
(2.9 3.13866e-14 0)
(2.9 -3.35186e-14 0)
(2.9 -9.9036e-15 0)
(2.9 -2.69988e-14 0)
(2.9 3.59997e-14 0)
(2.9 -1.95341e-14 0)
(2.9 -1.78358e-15 0)
(2.9 -2.32522e-14 0)
(2.9 -5.30874e-14 0)
(2.9 1.12286e-14 0)
(2.9 3.79028e-15 0)
(2.9 3.69848e-14 0)
(2.9 4.21933e-15 0)
(2.9 -4.74031e-15 0)
(2.9 1.80715e-14 0)
(2.9 -1.04084e-14 0)
(2.9 -1.05342e-14 0)
(2.9 -2.02899e-14 0)
(2.9 -4.19951e-14 0)
(2.9 -2.45892e-14 0)
(2.9 -1.1802e-14 0)
(2.9 -1.43757e-14 0)
(2.9 3.74736e-15 0)
(2.9 -5.12239e-14 0)
(2.9 -1.04971e-14 0)
(2.9 1.33012e-14 0)
(2.9 5.22813e-14 0)
(2.9 -2.74464e-14 0)
(2.9 -9.57245e-15 0)
(2.9 -1.39756e-14 0)
(2.9 -4.66207e-14 0)
(2.9 1.46045e-14 0)
(2.9 5.11457e-15 0)
(2.9 -2.37994e-14 0)
(2.9 -4.05305e-14 0)
(2.9 4.30337e-14 0)
(2.9 2.96893e-14 0)
(2.9 -1.5769e-14 0)
(2.9 2.71618e-14 0)
(2.9 3.67787e-14 0)
(2.9 -2.63295e-14 0)
(2.9 -2.51012e-14 0)
(2.9 -1.20418e-14 0)
(2.9 1.33367e-14 0)
(2.9 3.33922e-14 0)
(2.9 4.05282e-14 0)
(2.9 -3.59127e-14 0)
(2.9 2.54619e-14 0)
(2.9 3.36068e-14 0)
(2.9 5.14515e-15 0)
(2.9 -2.0045e-14 0)
(2.9 2.40674e-14 0)
(2.9 2.47853e-14 0)
(2.9 -4.92016e-14 0)
(2.9 -4.99486e-14 0)
(2.9 4.12735e-15 0)
(2.9 5.53224e-15 0)
(2.9 -9.49255e-15 0)
(2.9 -2.29719e-14 0)
(2.9 -7.8514e-15 0)
(2.9 1.89655e-14 0)
(2.9 -1.90505e-14 0)
(2.9 -2.68846e-16 0)
(2.9 -1.62623e-14 0)
(2.9 -4.83416e-15 0)
(2.9 -2.54515e-14 0)
(2.9 -3.85155e-14 0)
(2.9 -3.03205e-14 0)
(2.9 -7.81946e-14 0)
(2.9 -4.92561e-14 0)
(2.9 -1.7653e-14 0)
(2.9 -2.11272e-14 0)
(2.9 -4.83957e-14 0)
(2.9 -5.33158e-14 0)
(2.9 -1.72389e-14 0)
(2.9 -2.41656e-14 0)
(2.9 -5.78574e-14 0)
(2.9 3.54542e-14 0)
(2.9 -1.82359e-14 0)
(2.9 -2.33054e-14 0)
(2.9 -1.85887e-14 0)
(2.9 2.48044e-14 0)
(2.9 -2.03463e-14 0)
(2.9 4.73061e-15 0)
(2.9 -6.52856e-15 0)
(2.9 -3.05199e-14 0)
(2.9 -1.95976e-14 0)
(2.9 -3.47318e-14 0)
(2.9 -2.15361e-14 0)
(2.9 -8.67431e-15 0)
(2.9 -2.94409e-14 0)
(2.9 -2.23246e-14 0)
(2.9 -2.98507e-14 0)
(2.9 -1.76036e-14 0)
(2.9 -6.54632e-14 0)
(2.9 1.4559e-14 0)
(2.9 -2.2539e-14 0)
(2.9 2.79348e-14 0)
(2.9 1.69892e-14 0)
(2.9 -1.48338e-15 0)
(2.9 1.59185e-14 0)
(2.9 -8.35504e-16 0)
(2.9 1.5923e-14 0)
(2.9 -2.66075e-14 0)
(2.9 -1.7572e-15 0)
(2.9 -3.05135e-14 0)
(2.9 -1.33774e-14 0)
(2.9 1.19078e-14 0)
(2.9 -1.46879e-14 0)
(2.9 -2.09504e-14 0)
(2.9 3.23609e-15 0)
(2.9 -1.62905e-15 0)
(2.9 -3.92688e-14 0)
(2.9 -1.32713e-14 0)
(2.9 -3.89527e-14 0)
(2.9 -3.51829e-14 0)
(2.9 3.34055e-14 0)
(2.9 1.92702e-15 0)
(2.9 7.80947e-15 0)
(2.9 -1.20482e-14 0)
(2.9 -1.89046e-14 0)
(2.9 -3.54459e-14 0)
(2.9 4.37749e-14 0)
(2.9 1.43422e-16 0)
(2.9 -1.10303e-14 0)
(2.9 -3.69845e-14 0)
(2.9 6.14056e-15 0)
(2.9 -2.66172e-14 0)
(2.9 -7.43587e-15 0)
(2.9 -3.50197e-14 0)
(2.9 -1.23287e-14 0)
(2.9 1.33199e-14 0)
(2.9 -5.75273e-15 0)
(2.9 -1.0202e-14 0)
(2.9 -1.31581e-14 0)
(2.9 -2.12963e-14 0)
(2.9 2.35696e-14 0)
(2.9 3.64498e-14 0)
(2.9 2.29609e-15 0)
(2.9 -2.91916e-14 0)
(2.9 -7.53619e-15 0)
(2.9 -1.58609e-14 0)
(2.9 2.61832e-15 0)
(2.9 -2.99884e-15 0)
(2.9 -3.69849e-14 0)
(2.9 -2.00969e-14 0)
(2.9 -6.1068e-15 0)
(2.9 -1.55462e-14 0)
(2.9 -1.98319e-14 0)
(2.9 2.40801e-14 0)
(2.9 6.30732e-15 0)
(2.9 -9.15448e-15 0)
(2.9 -1.29262e-14 0)
(2.9 -2.10596e-14 0)
(2.9 5.36798e-15 0)
(2.9 -3.81685e-15 0)
(2.9 -2.48976e-14 0)
(2.9 -1.08774e-15 0)
(2.9 2.22539e-14 0)
(2.9 -5.91516e-15 0)
(2.9 2.58777e-14 0)
(2.9 -3.18324e-14 0)
(2.9 3.56718e-15 0)
(2.9 7.83817e-15 0)
(2.9 -4.37016e-14 0)
(2.9 -2.6809e-14 0)
(2.9 3.95352e-15 0)
(2.9 1.03489e-14 0)
(2.9 -6.15881e-14 0)
(2.9 5.83949e-15 0)
(2.9 -3.81113e-15 0)
(2.9 -6.72541e-14 0)
(2.9 -5.59658e-14 0)
(2.9 3.99375e-14 0)
(2.9 2.16848e-14 0)
(2.9 -4.01608e-14 0)
(2.9 3.65686e-14 0)
(2.9 1.76481e-14 0)
(2.9 3.60475e-14 0)
(2.9 3.55145e-14 0)
(2.9 -2.43422e-14 0)
(2.9 2.33924e-14 0)
(2.9 -8.28329e-15 0)
(2.9 -2.72895e-14 0)
(2.9 -5.66804e-14 0)
(2.9 -3.96187e-14 0)
(2.9 3.14746e-14 0)
(2.9 -1.84104e-14 0)
(2.9 1.31832e-15 0)
(2.9 -4.68042e-14 0)
(2.9 4.92341e-14 0)
(2.9 3.58275e-14 0)
(2.9 5.69554e-14 0)
(2.9 5.19392e-14 0)
(2.9 -4.1419e-14 0)
(2.9 1.7759e-14 0)
(2.9 3.69245e-14 0)
(2.9 4.62129e-14 0)
(2.9 3.05627e-14 0)
(2.9 3.44028e-14 0)
(2.9 -4.9502e-14 0)
(2.9 -2.44966e-14 0)
(2.9 4.6554e-14 0)
(2.9 5.91692e-14 0)
(2.9 1.96234e-14 0)
(2.9 6.16069e-14 0)
(2.9 -1.72922e-14 0)
(2.9 2.1655e-15 0)
(2.9 2.45668e-14 0)
(2.9 3.86487e-14 0)
(2.9 6.60845e-14 0)
(2.9 4.97202e-14 0)
(2.9 1.51858e-14 0)
(2.9 2.04148e-14 0)
(2.9 7.52301e-14 0)
(2.9 4.17558e-14 0)
(2.9 3.73021e-14 0)
(2.9 -4.01064e-14 0)
(2.9 -2.03798e-14 0)
(2.9 -2.79235e-14 0)
(2.9 7.50925e-16 0)
(2.9 -2.39936e-14 0)
(2.9 -1.96178e-14 0)
(2.9 2.80894e-14 0)
(2.9 -6.12738e-15 0)
(2.9 5.68829e-17 0)
(2.9 5.70184e-14 0)
(2.9 3.15919e-14 0)
(2.9 -1.36751e-14 0)
(2.9 -3.86609e-15 0)
(2.9 -3.18964e-14 0)
(2.9 -4.14625e-14 0)
(2.9 -9.57349e-15 0)
(2.9 4.86017e-14 0)
(2.9 6.61835e-14 0)
(2.9 -8.03589e-16 0)
(2.9 2.54933e-14 0)
(2.9 2.30985e-14 0)
(2.9 3.48855e-14 0)
(2.9 -2.07584e-14 0)
(2.9 2.98922e-14 0)
(2.9 4.43202e-14 0)
(2.9 -2.67018e-14 0)
(2.9 -3.55818e-14 0)
(2.9 -6.95204e-14 0)
(2.9 -2.98873e-14 0)
(2.9 -1.19564e-14 0)
(2.9 1.31763e-14 0)
(2.9 -3.7049e-14 0)
(2.9 -2.27818e-14 0)
(2.9 7.13156e-15 0)
(2.9 3.19237e-14 0)
(2.9 2.63626e-14 0)
(2.9 1.87124e-14 0)
(2.9 -4.06682e-14 0)
(2.9 3.95234e-15 0)
(2.9 6.26398e-15 0)
(2.9 7.28016e-15 0)
(2.9 3.32179e-14 0)
(2.9 3.26884e-14 0)
(2.9 -2.22426e-14 0)
(2.9 -2.65021e-15 0)
(2.9 -1.79288e-14 0)
(2.9 4.71298e-14 0)
(2.9 -3.02682e-15 0)
(2.9 1.3187e-14 0)
(2.9 -4.89388e-14 0)
(2.9 -9.83778e-15 0)
(2.9 1.69589e-14 0)
(2.9 -2.22698e-15 0)
(2.9 3.8399e-14 0)
(2.9 4.68305e-15 0)
(2.9 5.59784e-15 0)
(2.9 1.9467e-14 0)
(2.9 2.59626e-14 0)
(2.9 -1.64224e-14 0)
(2.9 2.20246e-14 0)
(2.9 1.53731e-14 0)
(2.9 -3.00985e-14 0)
(2.9 -2.68919e-14 0)
(2.9 1.96248e-15 0)
(2.9 4.27813e-14 0)
(2.9 -2.4145e-14 0)
(2.9 -2.53223e-14 0)
(2.9 2.01416e-14 0)
(2.9 -7.52856e-15 0)
(2.9 3.29995e-14 0)
(2.9 1.03673e-14 0)
(2.9 1.51183e-14 0)
(2.9 1.993e-14 0)
(2.9 3.1361e-14 0)
(2.9 1.89053e-14 0)
(2.9 3.56469e-14 0)
(2.9 2.14625e-14 0)
(2.9 2.64402e-14 0)
(2.9 7.98134e-15 0)
(2.9 2.25703e-14 0)
(2.9 2.85669e-14 0)
(2.9 6.35771e-15 0)
(2.9 1.80229e-14 0)
(2.9 1.93604e-14 0)
(2.9 -7.35511e-15 0)
(2.9 2.48537e-14 0)
(2.9 2.03562e-14 0)
(2.9 1.90695e-14 0)
(2.9 1.69413e-14 0)
(2.9 4.68836e-15 0)
(2.9 4.12679e-14 0)
(2.9 9.86967e-15 0)
(2.9 2.58008e-14 0)
(2.9 -1.14863e-14 0)
(2.9 2.44148e-14 0)
(2.9 7.29761e-15 0)
(2.9 -1.78483e-14 0)
(2.9 2.14758e-14 0)
(2.9 2.79822e-14 0)
(2.9 -5.68248e-16 0)
(2.9 -4.50542e-14 0)
(2.9 3.0708e-14 0)
(2.9 -1.78563e-14 0)
(2.9 2.86602e-14 0)
(2.9 -2.91717e-14 0)
(2.9 -2.18167e-15 0)
(2.9 -5.3806e-15 0)
(2.9 -4.29551e-14 0)
(2.9 -2.30541e-14 0)
(2.9 -7.5322e-15 0)
(2.9 -2.77043e-15 0)
(2.9 3.82651e-18 0)
(2.9 3.07374e-14 0)
(2.9 2.32271e-14 0)
(2.9 -3.48058e-14 0)
(2.9 1.0474e-14 0)
(2.9 3.24782e-14 0)
(2.9 1.98873e-14 0)
(2.9 -1.69593e-14 0)
(2.9 -1.00693e-14 0)
(2.9 4.58177e-14 0)
(2.9 -1.1661e-14 0)
(2.9 3.08602e-14 0)
(2.9 1.16318e-14 0)
(2.9 2.97761e-14 0)
(2.9 -1.92611e-15 0)
(2.9 -3.11235e-14 0)
(2.9 -2.61794e-14 0)
(2.9 -1.40981e-14 0)
(2.9 -5.23594e-14 0)
(2.9 -4.42168e-15 0)
(2.9 5.59897e-14 0)
(2.9 2.95734e-14 0)
(2.9 5.56942e-14 0)
(2.9 8.65666e-14 0)
(2.9 9.71832e-15 0)
(2.9 -2.78858e-14 0)
(2.9 -3.24695e-15 0)
(2.9 6.70765e-14 0)
(2.9 2.40214e-14 0)
(2.9 -5.11763e-15 0)
(2.9 -4.01242e-14 0)
(2.9 2.28509e-14 0)
(2.9 -1.67517e-14 0)
(2.9 -3.33126e-14 0)
(2.9 1.32519e-14 0)
(2.9 5.48375e-14 0)
(2.9 1.01178e-13 0)
(2.9 9.14431e-14 0)
(2.9 6.53523e-15 0)
(2.9 3.73034e-14 0)
(2.9 1.09801e-13 0)
(2.9 6.41268e-14 0)
(2.9 -6.52261e-15 0)
(2.9 3.47458e-14 0)
(2.9 -5.74264e-15 0)
(2.9 -2.26877e-14 0)
(2.9 4.71057e-14 0)
(2.9 1.34193e-15 0)
(2.9 -1.7016e-14 0)
(2.9 -5.16661e-14 0)
(2.9 3.42102e-16 0)
(2.9 -2.69824e-14 0)
(2.9 6.47096e-14 0)
(2.9 1.55399e-14 0)
(2.9 3.34664e-14 0)
(2.9 -2.98256e-14 0)
(2.9 -3.79428e-14 0)
(2.9 -5.81786e-15 0)
(2.9 4.36017e-14 0)
(2.9 6.4629e-14 0)
(2.9 -3.05766e-14 0)
(2.9 2.96559e-14 0)
(2.9 -4.35045e-15 0)
(2.9 -4.80443e-14 0)
(2.9 1.39582e-14 0)
(2.9 3.64834e-14 0)
(2.9 3.0884e-14 0)
(2.9 4.99739e-15 0)
(2.9 -3.46818e-14 0)
(2.9 -7.07249e-15 0)
(2.9 -2.21877e-14 0)
(2.9 8.41195e-15 0)
(2.9 -3.13649e-14 0)
(2.9 6.3853e-15 0)
(2.9 6.85799e-15 0)
(2.9 2.35448e-14 0)
(2.9 1.33251e-14 0)
(2.9 3.77248e-14 0)
(2.9 -4.87838e-14 0)
(2.9 -6.82971e-15 0)
(2.9 2.18489e-14 0)
(2.9 1.24237e-14 0)
(2.9 2.03028e-14 0)
(2.9 3.55443e-14 0)
(2.9 3.57877e-15 0)
(2.9 -2.67291e-14 0)
(2.9 1.25065e-14 0)
(2.9 2.15182e-14 0)
(2.9 -4.75436e-15 0)
(2.9 -9.25519e-15 0)
(2.9 -7.94378e-15 0)
(2.9 -1.49102e-14 0)
(2.9 1.35895e-14 0)
(2.9 1.40499e-14 0)
(2.9 6.51748e-15 0)
(2.9 2.89084e-14 0)
(2.9 4.54557e-14 0)
(2.9 3.28809e-14 0)
(2.9 1.51371e-14 0)
(2.9 1.61927e-14 0)
(2.9 5.34506e-14 0)
(2.9 3.57781e-14 0)
(2.9 2.58891e-14 0)
(2.9 3.02061e-14 0)
(2.9 -2.11125e-14 0)
(2.9 -1.44237e-14 0)
(2.9 1.96867e-14 0)
(2.9 -5.69813e-15 0)
(2.9 -1.60839e-14 0)
(2.9 3.30513e-15 0)
(2.9 -1.5191e-14 0)
(2.9 1.01703e-14 0)
(2.9 3.0363e-14 0)
(2.9 2.97469e-14 0)
(2.9 -9.11194e-15 0)
(2.9 8.08738e-15 0)
(2.9 -5.16352e-15 0)
(2.9 1.72125e-14 0)
(2.9 1.2772e-14 0)
(2.9 -5.75055e-15 0)
(2.9 -6.32176e-15 0)
(2.9 1.06743e-17 0)
(2.9 -6.08251e-15 0)
(2.9 -2.87912e-14 0)
(2.9 -1.86088e-14 0)
(2.9 -1.06533e-14 0)
(2.9 1.06665e-14 0)
(2.9 -2.26654e-14 0)
(2.9 -1.92582e-14 0)
(2.9 -2.66057e-14 0)
(2.9 9.75721e-15 0)
(2.9 -2.14514e-14 0)
(2.9 -7.45974e-14 0)
(2.9 -1.44429e-14 0)
(2.9 -7.29029e-16 0)
(2.9 2.11106e-15 0)
(2.9 1.36401e-14 0)
(2.9 4.28963e-14 0)
(2.9 -6.56904e-15 0)
(2.9 -3.84497e-14 0)
(2.9 -2.40877e-14 0)
(2.9 -1.44675e-14 0)
(2.9 -2.16237e-14 0)
(2.9 -2.32358e-14 0)
(2.9 -2.8953e-15 0)
(2.9 2.68834e-14 0)
(2.9 4.16953e-15 0)
(2.9 -2.5001e-14 0)
(2.9 3.1963e-14 0)
(2.9 1.87992e-14 0)
(2.9 -7.64883e-15 0)
(2.9 3.08405e-14 0)
(2.9 1.49577e-14 0)
(2.9 3.63542e-14 0)
(2.9 4.39821e-14 0)
(2.9 -1.28385e-14 0)
(2.9 -2.18832e-14 0)
(2.9 -5.3535e-15 0)
(2.9 9.3021e-15 0)
(2.9 2.06404e-14 0)
(2.9 5.25864e-15 0)
(2.9 -4.48931e-15 0)
(2.9 7.08613e-15 0)
(2.9 3.55837e-14 0)
(2.9 2.88905e-14 0)
(2.9 -2.26279e-16 0)
(2.9 -5.41389e-14 0)
(2.9 -8.04352e-15 0)
(2.9 3.23306e-15 0)
(2.9 1.11362e-14 0)
(2.9 -2.11795e-14 0)
(2.9 3.45632e-14 0)
(2.9 -2.54948e-14 0)
(2.9 -3.47047e-14 0)
(2.9 -3.53627e-14 0)
(2.9 2.45983e-14 0)
(2.9 2.87169e-14 0)
(2.9 -1.24901e-14 0)
(2.9 1.50638e-14 0)
(2.9 -3.23661e-14 0)
(2.9 2.1308e-14 0)
(2.9 3.55036e-14 0)
(2.9 2.10922e-14 0)
(2.9 4.66777e-14 0)
(2.9 1.86523e-14 0)
(2.9 -1.47049e-15 0)
(2.9 5.9672e-15 0)
(2.9 -3.12669e-14 0)
(2.9 5.59176e-16 0)
(2.9 -1.47307e-14 0)
(2.9 -7.91783e-15 0)
(2.9 -2.47882e-14 0)
(2.9 -3.55674e-14 0)
(2.9 -2.09956e-14 0)
(2.9 -4.01532e-14 0)
(2.9 2.85009e-15 0)
(2.9 -1.26277e-14 0)
(2.9 1.66097e-14 0)
(2.9 3.30825e-14 0)
(2.9 -4.19474e-14 0)
(2.9 1.0025e-14 0)
(2.9 1.48062e-14 0)
(2.9 -1.60089e-14 0)
(2.9 -4.17116e-14 0)
(2.9 -7.38097e-15 0)
(2.9 6.15492e-14 0)
(2.9 -2.31523e-14 0)
(2.9 -2.35661e-14 0)
(2.9 3.64342e-14 0)
(2.9 1.52535e-14 0)
(2.9 -1.11013e-14 0)
(2.9 -1.16283e-14 0)
(2.9 -4.95313e-16 0)
(2.9 2.62533e-15 0)
(2.9 4.60335e-14 0)
(2.9 -1.00145e-14 0)
(2.9 -4.46423e-14 0)
(2.9 -1.22848e-14 0)
(2.9 5.4413e-15 0)
(2.9 1.29851e-14 0)
(2.9 3.10733e-14 0)
(2.9 1.59306e-14 0)
(2.9 -4.67611e-14 0)
(2.9 -7.55343e-15 0)
(2.9 3.15939e-15 0)
(2.9 -2.18019e-14 0)
(2.9 -3.50119e-14 0)
(2.9 1.91984e-14 0)
(2.9 5.16989e-14 0)
(2.9 2.69903e-14 0)
(2.9 -1.03195e-14 0)
(2.9 7.37262e-16 0)
(2.9 -1.70757e-14 0)
(2.9 2.74551e-14 0)
(2.9 -1.33321e-14 0)
(2.9 -2.34527e-14 0)
(2.9 6.74352e-14 0)
(2.9 -7.82541e-16 0)
(2.9 5.55367e-14 0)
(2.9 3.92035e-14 0)
(2.9 2.8029e-14 0)
(2.9 5.12938e-14 0)
(2.9 -9.34987e-15 0)
(2.9 4.89929e-14 0)
(2.9 1.25367e-13 0)
(2.9 7.09842e-14 0)
(2.9 2.40283e-14 0)
(2.9 -4.88761e-14 0)
(2.9 -3.28128e-14 0)
(2.9 -4.35923e-14 0)
(2.9 -3.62838e-14 0)
(2.9 1.84367e-14 0)
(2.9 1.70342e-14 0)
(2.9 -5.27934e-14 0)
(2.9 1.54696e-14 0)
(2.9 6.12072e-15 0)
(2.9 5.09441e-15 0)
(2.9 -3.06807e-14 0)
(2.9 1.30915e-14 0)
(2.9 8.89035e-15 0)
(2.9 8.27517e-15 0)
(2.9 3.55389e-14 0)
(2.9 -3.33683e-14 0)
(2.9 7.80922e-15 0)
(2.9 1.19559e-15 0)
(2.9 -4.76704e-15 0)
(2.9 8.79437e-15 0)
(2.9 -1.62429e-14 0)
(2.9 -2.4364e-14 0)
(2.9 3.81884e-14 0)
(2.9 1.53326e-14 0)
(2.9 -1.04899e-14 0)
(2.9 -1.0665e-14 0)
(2.9 4.17355e-16 0)
(2.9 -2.16029e-14 0)
(2.9 -6.47551e-16 0)
(2.9 -3.56704e-14 0)
(2.9 -1.81338e-14 0)
(2.9 -2.55752e-15 0)
(2.9 -3.65503e-15 0)
(2.9 6.22736e-15 0)
(2.9 2.73403e-15 0)
(2.9 -2.66608e-15 0)
(2.9 -3.0749e-14 0)
(2.9 1.31929e-14 0)
(2.9 3.23781e-14 0)
(2.9 1.8357e-14 0)
(2.9 2.1853e-14 0)
(2.9 3.09003e-14 0)
(2.9 -1.40194e-14 0)
(2.9 -3.14502e-14 0)
(2.9 -9.05033e-15 0)
(2.9 5.77334e-15 0)
(2.9 1.30901e-14 0)
(2.9 -1.96683e-14 0)
(2.9 -1.91829e-14 0)
(2.9 2.46432e-14 0)
(2.9 -9.99e-16 0)
(2.9 -2.25358e-15 0)
(2.9 2.86917e-14 0)
(2.9 3.21967e-14 0)
(2.9 2.34405e-14 0)
(2.9 3.82767e-15 0)
(2.9 -1.23978e-14 0)
(2.9 3.0357e-14 0)
(2.9 2.06967e-14 0)
(2.9 -4.15365e-16 0)
(2.9 1.25776e-14 0)
(2.9 2.27025e-14 0)
(2.9 -8.75124e-15 0)
(2.9 -7.4708e-15 0)
(2.9 -3.65967e-15 0)
(2.9 1.45524e-14 0)
(2.9 -8.307e-15 0)
(2.9 1.69805e-14 0)
(2.9 -5.02243e-15 0)
(2.9 -1.20156e-14 0)
(2.9 -1.81044e-14 0)
(2.9 5.98488e-14 0)
(2.9 6.05296e-15 0)
(2.9 5.34206e-15 0)
(2.9 -6.28712e-15 0)
(2.9 -7.47622e-15 0)
(2.9 4.96333e-14 0)
(2.9 4.69341e-14 0)
(2.9 -1.59935e-14 0)
(2.9 1.03844e-15 0)
(2.9 -4.68638e-15 0)
(2.9 -1.52266e-14 0)
(2.9 1.42395e-14 0)
(2.9 7.96428e-15 0)
(2.9 -1.5301e-14 0)
(2.9 1.07812e-14 0)
(2.9 -9.74364e-15 0)
(2.9 -4.79583e-14 0)
(2.9 -2.4673e-14 0)
(2.9 -1.1539e-14 0)
(2.9 -6.60512e-16 0)
(2.9 -2.05574e-14 0)
(2.9 -8.93495e-15 0)
(2.9 -1.58012e-14 0)
(2.9 -4.11231e-15 0)
(2.9 2.75652e-14 0)
(2.9 -7.08547e-14 0)
(2.9 8.14207e-15 0)
(2.9 4.96566e-14 0)
(2.9 4.93652e-14 0)
(2.9 4.35238e-17 0)
(2.9 -2.48654e-14 0)
(2.9 -3.6337e-14 0)
(2.9 -2.68349e-14 0)
(2.9 -8.97605e-15 0)
(2.9 -1.13206e-14 0)
(2.9 3.66463e-17 0)
(2.9 2.92725e-15 0)
(2.9 -2.03912e-14 0)
(2.9 -3.98888e-14 0)
(2.9 -3.57538e-14 0)
(2.9 -4.12928e-14 0)
(2.9 -6.28193e-15 0)
(2.9 3.48182e-15 0)
(2.9 -2.08976e-14 0)
(2.9 -1.20986e-14 0)
(2.9 -4.08602e-14 0)
(2.9 -6.28521e-14 0)
(2.9 -3.28142e-14 0)
(2.9 -3.019e-14 0)
(2.9 5.14791e-14 0)
(2.9 4.34787e-14 0)
(2.9 -1.97227e-15 0)
(2.9 1.16421e-14 0)
(2.9 6.88804e-15 0)
(2.9 1.36383e-14 0)
(2.9 1.67956e-14 0)
(2.9 8.19509e-15 0)
(2.9 -3.62012e-14 0)
(2.9 -4.27105e-14 0)
(2.9 -3.00904e-14 0)
(2.9 3.10539e-14 0)
(2.9 1.46801e-14 0)
(2.9 3.28558e-14 0)
(2.9 9.70359e-16 0)
(2.9 1.11708e-15 0)
(2.9 2.81366e-14 0)
(2.9 4.61296e-14 0)
(2.9 -2.66618e-14 0)
(2.9 -2.88482e-14 0)
(2.9 -2.09497e-14 0)
(2.9 6.68914e-15 0)
(2.9 8.04762e-15 0)
(2.9 -1.18944e-14 0)
(2.9 -5.49239e-15 0)
(2.9 -5.99031e-15 0)
(2.9 -6.65897e-15 0)
(2.9 1.15686e-14 0)
(2.9 -3.10839e-14 0)
(2.9 -7.31842e-16 0)
(2.9 2.26525e-14 0)
(2.9 -4.9855e-14 0)
(2.9 -6.78767e-16 0)
(2.9 -1.46585e-14 0)
(2.9 -2.39448e-14 0)
(2.9 -2.07274e-14 0)
(2.9 5.97384e-15 0)
(2.9 1.02679e-14 0)
(2.9 2.20683e-14 0)
(2.9 2.68709e-14 0)
(2.9 1.51532e-14 0)
(2.9 5.73971e-17 0)
(2.9 -2.4283e-14 0)
(2.9 1.60337e-14 0)
(2.9 1.58725e-14 0)
(2.9 -3.40782e-14 0)
(2.9 -1.65143e-14 0)
(2.9 -3.99679e-16 0)
(2.9 3.71268e-14 0)
(2.9 -2.6355e-14 0)
(2.9 1.24745e-14 0)
(2.9 1.31618e-14 0)
(2.9 -8.51696e-15 0)
(2.9 -2.73786e-14 0)
(2.9 -2.79847e-14 0)
(2.9 1.80183e-14 0)
(2.9 -2.40747e-14 0)
(2.9 7.40515e-15 0)
(2.9 -9.7194e-15 0)
(2.9 -4.49014e-14 0)
(2.9 1.48909e-14 0)
(2.9 3.40098e-14 0)
(2.9 -2.20668e-14 0)
(2.9 1.22445e-14 0)
(2.9 3.19679e-14 0)
(2.9 1.88039e-14 0)
(2.9 2.04438e-14 0)
(2.9 5.80198e-15 0)
(2.9 -1.62746e-14 0)
(2.9 -5.83145e-15 0)
(2.9 -1.59854e-14 0)
(2.9 -5.94781e-15 0)
(2.9 -2.42974e-14 0)
(2.9 -1.30187e-14 0)
(2.9 -1.73016e-14 0)
(2.9 1.34677e-15 0)
(2.9 -2.25921e-14 0)
(2.9 -1.54874e-14 0)
(2.9 -7.38446e-15 0)
(2.9 -2.07684e-15 0)
(2.9 -2.91994e-14 0)
(2.9 8.59213e-15 0)
(2.9 -6.41835e-15 0)
(2.9 3.70272e-14 0)
(2.9 2.4356e-14 0)
(2.9 -9.59319e-15 0)
(2.9 -3.33566e-14 0)
(2.9 4.74141e-15 0)
(2.9 -1.20474e-14 0)
(2.9 -4.72232e-15 0)
(2.9 1.6761e-14 0)
(2.9 2.99468e-15 0)
(2.9 2.00838e-14 0)
(2.9 -1.31371e-14 0)
(2.9 -4.62498e-15 0)
(2.9 -1.79774e-14 0)
(2.9 1.98407e-14 0)
(2.9 1.88271e-14 0)
(2.9 1.4414e-14 0)
(2.9 1.57028e-14 0)
(2.9 1.25713e-14 0)
(2.9 7.05286e-15 0)
(2.9 -2.71011e-14 0)
(2.9 1.51087e-14 0)
(2.9 3.19164e-14 0)
(2.9 -1.36587e-14 0)
(2.9 -2.39392e-14 0)