/*--------------------------------*- C++ -*----------------------------------*\
| =========                 |                                                 |
| \\      /  F ield         | OpenFOAM: The Open Source CFD Toolbox           |
|  \\    /   O peration     | Version:  2412                                  |
|   \\  /    A nd           | Website:  www.openfoam.com                      |
|    \\/     M anipulation  |                                                 |
\*---------------------------------------------------------------------------*/
FoamFile
{
    version     2.0;
    format      ascii;
    arch        "LSB;label=32;scalar=64";
    class       surfaceScalarField;
    location    "0.025308";
    object      phiRhoY_Y_N2;
}
// * * * * * * * * * * * * * * * * * * * * * * * * * * * * * * * * * * * * * //

dimensions      [1 0 -1 0 0 0 0];

internalField   nonuniform List<scalar> 
99
(
10.7959
21.5774
32.3325
43.063
53.801
64.553
75.3081
86.0474
96.7703
107.47
118.151
128.816
139.42
150.008
160.565
171.121
181.667
192.133
202.612
213.051
223.44
233.741
243.986
254.186
264.381
274.676
285.064
295.585
306.045
316.191
325.792
334.809
343.4
351.76
360.057
368.725
378.516
390.711
404.613
414.982
420.678
425.884
440.738
489.744
541.022
545.594
544.194
542.887
542.809
541.355
529.347
516.347
515.051
514.971
514.893
519.281
523.859
521.573
518.534
524.322
530.75
522.152
507.105
511.723
544.128
546.621
484.352
119.083
3.93513
44.8074
81.0298
85.8943
32.2486
-34.0156
-47.2067
-37.0256
-21.4972
-10.0538
-9.06542
-2.31658
8.99909
24.5026
35.9258
37.4562
6.25641
-27.7851
-38.7798
-19.3815
14.0586
13.9497
5.40945
0.298232
-0.221232
-0.0510977
-0.00517178
-3.5601e-05
2.00816e-05
6.29348e-07
0
)
;

boundaryField
{
    sides
    {
        type            calculated;
        value           uniform 0;
    }
    empty
    {
        type            empty;
    }
}


// ************************************************************************* //
