x,p,U_0,U_1,U_2
-5,86390.7,0,0,0
-4.94975,86401.9,15.87,0,0
-4.8995,88641.8,22.457,0,0
-4.84925,90890.5,28.9631,0,0
-4.79899,93726.5,30.1527,0,0
-4.74874,96550.2,31.1271,0,0
-4.69849,98894.3,23.7088,0,0
-4.64824,101201,16.1841,0,0
-4.59799,102468,5.72898,0,0
-4.54774,103529,-4.49311,0,0
-4.49749,100201,-9.76875,0,0
-4.44724,97035.4,-14.7384,0,0
-4.39698,96651.9,-14.4498,0,0
-4.34673,96242.2,-13.8598,0,0
-4.29648,95457.3,-8.93272,0,0
-4.24623,94790,-4.09918,0,0
-4.19598,95572.8,-0.419135,0,0
-4.14573,96286.8,3.101,0,0
-4.09548,96260.3,4.8997,0,0
-4.04523,96191.3,6.3347,0,0
-3.99497,95716.4,4.30506,0,0
-3.94472,95164,2.20662,0,0
-3.89447,93951.8,-0.478353,0,0
-3.84422,92872.4,-2.80584,0,0
-3.79397,92815.7,-2.38219,0,0
-3.74372,92878,-2.04803,0,0
-3.69347,93773.8,-2.34023,0,0
-3.64322,94808.6,-2.747,0,0
-3.59296,96733.1,-3.88787,0,0
-3.54271,98501,-4.88477,0,0
-3.49246,99346,-5.03276,0,0
-3.44221,99753.9,-4.95061,0,0
-3.39196,97779,-3.61387,0,0
-3.34171,95880,-2.29816,0,0
-3.29146,94364.5,-1.08887,0,0
-3.24121,93088.3,-0.140569,0,0
-3.19095,92939.9,-0.422704,0,0
-3.1407,93948.9,-2.73395,0,0
-3.09045,100057,-13.9842,0,0
-3.0402,105676,-24.7019,0,0
-2.98995,109275,-33.2208,0,0
-2.9397,113077,-39.5426,0,0
-2.88945,117665,-37.3439,0,0
-2.8392,119679,-35.0441,0,0
-2.78894,112292,-32.3756,0,0
-2.73869,102082,-38.5591,0,0
-2.68844,82145.2,-75.2331,0,0
-2.63819,63888.5,-114.566,0,0
-2.58794,51100.2,-162.554,0,0
-2.53769,40693.3,-198.667,0,0
-2.48744,37624.7,-198.189,0,0
-2.43719,35504.4,-197.194,0,0
-2.38693,36154.4,-194.69,0,0
-2.33668,36714.8,-192.543,0,0
-2.28643,37026.7,-191.385,0,0
-2.23618,37286.6,-190.65,0,0
-2.18593,37409.2,-191.027,0,0
-2.13568,37607.3,-191.261,0,0
-2.08543,37995.1,-191.136,0,0
-2.03518,38261.5,-190.888,0,0
-1.98492,38237.9,-190.347,0,0
-1.93467,38297.4,-189.584,0,0
-1.88442,38545.9,-188.317,0,0
-1.83417,38586.6,-186.563,0,0
-1.78392,38175.3,-183.749,0,0
-1.73367,37931.1,-181.183,0,0
-1.68342,38034,-179.13,0,0
-1.63317,38088.8,-177.47,0,0
-1.58291,38048.1,-176.588,0,0
-1.53266,38132.6,-175.856,0,0
-1.48241,38454.8,-175.408,0,0
-1.43216,38675.1,-174.939,0,0
-1.38191,38710.5,-174.43,0,0
-1.33166,38897.2,-174.238,0,0
-1.28141,39347.3,-174.598,0,0
-1.23116,39743.2,-175.156,0,0
-1.1809,40048.6,-176.044,0,0
-1.13065,40400.6,-176.714,0,0
-1.0804,40826.8,-177.035,0,0
-1.03015,41136.7,-177.059,0,0
-0.979899,41268.2,-176.627,0,0
-0.929648,41448.2,-176.175,0,0
-0.879397,41699.5,-175.693,0,0
-0.829146,41889.8,-175.055,0,0
-0.778894,41994.2,-174.194,0,0
-0.728643,41989.8,-172.589,0,0
-0.678392,41838.1,-169.979,0,0
-0.628141,41349.8,-165.536,0,0
-0.577889,40424.4,-158.715,0,0
-0.527638,39672.1,-152.77,0,0
-0.477387,39135.7,-147.918,0,0
-0.427136,38819.9,-144.475,0,0
-0.376884,38768.5,-142.719,0,0
-0.326633,38819.9,-141.517,0,0
-0.276382,38989.6,-140.951,0,0
-0.226131,39157.2,-140.489,0,0
-0.175879,39322.4,-140.141,0,0
-0.125628,39509,-139.834,0,0
-0.0753769,39718.4,-139.57,0,0
-0.0251256,39941,-139.421,0,0
0.0251256,40176.8,-139.39,0,0
0.0753769,40438.3,-139.463,0,0
0.125628,40725.1,-139.638,0,0
0.175879,40988.2,-139.678,0,0
0.226131,41229,-139.59,0,0
0.276382,41446.3,-139.333,0,0
0.326633,41642.3,-138.924,0,0
0.376884,41785.9,-138.121,0,0
0.427136,41883.8,-136.977,0,0
0.477387,41790.7,-134.914,0,0
0.527638,41538.2,-132.086,0,0
0.577889,41229.9,-128.805,0,0
0.628141,40876.6,-125.16,0,0
0.678392,40649,-122.337,0,0
0.728643,40518.1,-120.147,0,0
0.778894,40482.9,-118.415,0,0
0.829146,40518.6,-117.023,0,0
0.879397,40581.1,-115.901,0,0
0.929648,40662.7,-114.969,0,0
0.979899,40749.1,-114.002,0,0
1.03015,40838.8,-113.013,0,0
1.0804,40896,-111.866,0,0
1.13065,40931.9,-110.616,0,0
1.1809,40946.9,-109.238,0,0
1.23116,40948.9,-107.779,0,0
1.28141,40934.8,-106.229,0,0
1.33166,40911.1,-104.623,0,0
1.38191,40895.6,-103.043,0,0
1.43216,40884.9,-101.479,0,0
1.48241,40874.8,-99.9496,0,0
1.53266,40865,-98.4399,0,0
1.58291,40868.9,-96.9564,0,0
1.63317,40880,-95.4867,0,0
1.68342,40879.3,-94.0241,0,0
1.73367,40872.6,-92.565,0,0
1.78392,40883.3,-91.1131,0,0
1.83417,40902.3,-89.6646,0,0
1.88442,40911.3,-88.2832,0,0
1.93467,40915.7,-86.9326,0,0
1.98492,40950,-85.6448,0,0
2.03518,40997.4,-84.3847,0,0
2.08543,41029.1,-83.1182,0,0
2.13568,41054.3,-81.8491,0,0
2.18593,41077.8,-80.5807,0,0
2.23618,41100.8,-79.3127,0,0
2.28643,41127.2,-77.8965,0,0
2.33668,41155,-76.4241,0,0
2.38693,41123.7,-74.99,0,0
2.43719,41071.2,-73.5697,0,0
2.48744,41074.9,-71.8976,0,0
2.53769,41098,-70.1393,0,0
2.58794,41011.1,-68.6245,0,0
2.63819,40888.6,-67.1887,0,0
2.68844,40983.4,-65.6267,0,0
2.73869,41145,-64.0259,0,0
2.78894,41053.2,-62.5293,0,0
2.8392,40887.7,-61.0629,0,0
2.88945,40979.1,-59.7006,0,0
2.9397,41140.9,-58.3669,0,0
2.98995,41074.7,-57.0543,0,0
3.0402,40949.7,-55.747,0,0
3.09045,41045.2,-54.5694,0,0
3.1407,41194.2,-53.4232,0,0
3.19095,41236.7,-51.9271,0,0
3.24121,41255.1,-50.3517,0,0
3.29146,41241.3,-49.2467,0,0
3.34171,41220.7,-48.2415,0,0
3.39196,41373.9,-46.7837,0,0
3.44221,41561.4,-45.2364,0,0
3.49246,41418.7,-43.7228,0,0
3.54271,41215.3,-42.2154,0,0
3.59296,41323.1,-40.6908,0,0
3.64322,41483.7,-39.1633,0,0
3.69347,41331.9,-37.5085,0,0
3.74372,41131.4,-35.8339,0,0
3.79397,41199.4,-34.3994,0,0
3.84422,41305.9,-32.9992,0,0
3.89447,41229.7,-31.2795,0,0
3.94472,41129.9,-29.5184,0,0
3.99497,41133.7,-28.1645,0,0
4.04523,41149.6,-26.8583,0,0
4.09548,41212.7,-25.3641,0,0
4.14573,41280.7,-23.8502,0,0
4.19598,41229.6,-22.7241,0,0
4.24623,41167.4,-21.6341,0,0
4.29648,41310.6,-20.3052,0,0
4.34673,41470.4,-18.9569,0,0
4.39698,41351.8,-17.603,0,0
4.44724,41213.9,-16.2487,0,0
4.49749,41360.4,-14.7502,0,0
4.54774,41523.5,-13.2434,0,0
4.59799,41378.9,-11.576,0,0
4.64824,41219.8,-9.90101,0,0
4.69849,41310.7,-8.44395,0,0
4.74874,41410.7,-6.99479,0,0
4.79899,41311.4,-5.39023,0,0
4.84925,41207,-3.78168,0,0
4.8995,41203.4,-2.67929,0,0
4.94975,41201.4,-1.58462,0,0
5,41201.4,0,0,0
