/*--------------------------------*- C++ -*----------------------------------*\
| =========                 |                                                 |
| \\      /  F ield         | OpenFOAM: The Open Source CFD Toolbox           |
|  \\    /   O peration     | Version:  2412                                  |
|   \\  /    A nd           | Website:  www.openfoam.com                      |
|    \\/     M anipulation  |                                                 |
\*---------------------------------------------------------------------------*/
FoamFile
{
    version     2.0;
    format      ascii;
    arch        "LSB;label=32;scalar=64";
    class       volScalarField;
    location    "0.0112461";
    object      p;
}
// * * * * * * * * * * * * * * * * * * * * * * * * * * * * * * * * * * * * * //

dimensions      [1 -1 -2 0 0 0 0];

internalField   nonuniform List<scalar> 
100
(
100000
100000
100000
100000
100000
100000
100000
100000
100000
100000
100000
99994.1
99773.1
98021.1
93924.6
89444.3
85848.5
82993.8
80520
78218.1
76001.4
73842.6
71734
69677.2
67662.6
65710.9
63766.9
61957.7
60010.8
58485.8
56345.8
55353.9
52791.6
52364.7
49633.3
49253.8
46931.2
46249.7
44306.8
43387
41827
40704.1
39352.8
38202.4
36970.6
35896.5
34952.8
34000.3
32833
31959.1
31602.1
31859.5
32180.6
31549.4
31154.5
31694.5
32616.7
32610.8
31190.9
30884.4
31676.3
32637
32545.7
31360.3
30973.3
31525.4
32616.5
32519.7
32045
31183.2
31315.1
31743.3
32521.4
32346.5
32141.1
31642.8
31390.7
31641.1
32009
32066.9
31997.8
32244.1
32385.6
32063.3
31569.2
31538.8
31569.7
31746.1
32132.9
32218.6
32171
31936.5
31758.6
31750.7
31805.8
32292.1
31949.9
43010.5
65766.9
113429
)
;

boundaryField
{
    sides
    {
        type            zeroGradient;
    }
    empty
    {
        type            empty;
    }
}


// ************************************************************************* //
