/*--------------------------------*- C++ -*----------------------------------*\
| =========                 |                                                 |
| \\      /  F ield         | OpenFOAM: The Open Source CFD Toolbox           |
|  \\    /   O peration     | Version:  2412                                  |
|   \\  /    A nd           | Website:  www.openfoam.com                      |
|    \\/     M anipulation  |                                                 |
\*---------------------------------------------------------------------------*/
FoamFile
{
    version     2.0;
    format      ascii;
    arch        "LSB;label=32;scalar=64";
    class       volScalarField;
    location    "0.0547502";
    object      rhoY_Y_N2;
}
// * * * * * * * * * * * * * * * * * * * * * * * * * * * * * * * * * * * * * //

dimensions      [1 -3 0 0 0 0 0];

internalField   nonuniform List<scalar> 
100
(
1.09148
1.05827
1.02784
0.995085
0.972117
0.958818
0.962748
0.991954
1.02885
1.05672
1.05297
1.03971
1.01513
1.00405
1.01034
1.0247
1.038
1.03785
1.05216
1.05874
0.898429
0.595776
0.523318
0.531778
0.578706
0.612541
0.617723
0.621262
0.623722
0.610512
0.556681
0.524446
0.521721
0.525183
0.529943
0.534729
0.538853
0.540082
0.536062
0.535712
0.539303
0.543107
0.547598
0.553919
0.561871
0.567907
0.572164
0.576052
0.577623
0.828033
0.607931
0.595306
0.588225
0.586574
0.587029
0.588414
0.591259
0.594968
0.598082
0.599575
0.595435
0.587529
0.583115
0.582112
0.582554
0.583258
0.583695
0.583625
0.583455
0.58353
0.584154
0.585489
0.586805
0.588258
0.588862
0.588836
0.587237
0.583296
0.561336
0.488663
0.375953
0.257792
0.147454
0.053599
-0.00098166
-0.016678
-0.0239001
-0.0321175
-0.0246783
0.00709227
-0.0195566
-0.000525395
0.00030702
-0.000578576
5.34882e-07
-3.41587e-06
-1.28953e-07
-4.33778e-08
-4.00737e-09
-2.01132e-10
)
;

boundaryField
{
    sides
    {
        type            calculated;
        value           nonuniform List<scalar> 2(0 1.12308);
    }
    empty
    {
        type            empty;
    }
}


// ************************************************************************* //
