/*--------------------------------*- C++ -*----------------------------------*\
| =========                 |                                                 |
| \\      /  F ield         | OpenFOAM: The Open Source CFD Toolbox           |
|  \\    /   O peration     | Version:  2412                                  |
|   \\  /    A nd           | Website:  www.openfoam.com                      |
|    \\/     M anipulation  |                                                 |
\*---------------------------------------------------------------------------*/
FoamFile
{
    version     2.0;
    format      ascii;
    arch        "LSB;label=32;scalar=64";
    class       volVectorField;
    location    "0.0547502";
    object      U;
}
// * * * * * * * * * * * * * * * * * * * * * * * * * * * * * * * * * * * * * //

dimensions      [0 1 -1 0 0 0 0];

internalField   nonuniform List<vector> 
100
(
(-12.9506 0 0)
(-26.1919 0 0)
(-17.0527 0 0)
(4.53797 0 0)
(21.6614 0 0)
(26.6136 0 0)
(17.5499 0 0)
(-2.86792 0 0)
(-17.4119 0 0)
(-13.0207 0 0)
(-6.20516 0 0)
(1.00716 0 0)
(-0.617054 0 0)
(-3.11727 0 0)
(-3.67226 0 0)
(5.01002 0 0)
(10.336 0 0)
(8.73738 0 0)
(-2.26238 0 0)
(-18.031 0 0)
(-53.1112 0 0)
(-176.314 0 0)
(-218.577 0 0)
(-219.55 0 0)
(-240.675 0 0)
(-254.787 0 0)
(-254.686 0 0)
(-252.761 0 0)
(-250.263 0 0)
(-240.091 0 0)
(-208.701 0 0)
(-186.76 0 0)
(-181.13 0 0)
(-179.755 0 0)
(-179.276 0 0)
(-178.895 0 0)
(-177.564 0 0)
(-174.877 0 0)
(-169.363 0 0)
(-165.567 0 0)
(-163.941 0 0)
(-163.111 0 0)
(-162.409 0 0)
(-162.889 0 0)
(-164.216 0 0)
(-164.619 0 0)
(-163.91 0 0)
(-162.849 0 0)
(-160.364 0 0)
(-152.465 0 0)
(-140.164 0 0)
(-133.103 0 0)
(-130.044 0 0)
(-129.024 0 0)
(-128.235 0 0)
(-127.675 0 0)
(-127.654 0 0)
(-127.682 0 0)
(-127.056 0 0)
(-125.207 0 0)
(-120.848 0 0)
(-114.039 0 0)
(-109.147 0 0)
(-105.99 0 0)
(-103.522 0 0)
(-101.361 0 0)
(-98.8227 0 0)
(-95.869 0 0)
(-92.6696 0 0)
(-89.512 0 0)
(-86.4885 0 0)
(-83.4191 0 0)
(-80.4885 0 0)
(-77.3591 0 0)
(-74.7898 0 0)
(-72.0352 0 0)
(-69.6799 0 0)
(-66.763 0 0)
(-63.5581 0 0)
(-60.1757 0 0)
(-56.9154 0 0)
(-54.3776 0 0)
(-50.8318 0 0)
(-48.5362 0 0)
(-45.5925 0 0)
(-42.814 0 0)
(-40.0092 0 0)
(-36.8784 0 0)
(-34.4834 0 0)
(-31.2133 0 0)
(-28.5089 0 0)
(-24.9373 0 0)
(-21.8168 0 0)
(-18.422 0 0)
(-15.589 0 0)
(-12.9492 0 0)
(-10.3125 0 0)
(-7.92555 0 0)
(-4.75349 0 0)
(-1.68449 0 0)
)
;

boundaryField
{
    sides
    {
        type            fixedValue;
        value           uniform (0 0 0);
    }
    empty
    {
        type            empty;
    }
}


// ************************************************************************* //
