/*--------------------------------*- C++ -*----------------------------------*\
| =========                 |                                                 |
| \\      /  F ield         | OpenFOAM: The Open Source CFD Toolbox           |
|  \\    /   O peration     | Version:  2412                                  |
|   \\  /    A nd           | Website:  www.openfoam.com                      |
|    \\/     M anipulation  |                                                 |
\*---------------------------------------------------------------------------*/
FoamFile
{
    version     2.0;
    format      ascii;
    arch        "LSB;label=32;scalar=64";
    class       surfaceScalarField;
    location    "0.0411474";
    object      phiRhoY_Y_N2;
}
// * * * * * * * * * * * * * * * * * * * * * * * * * * * * * * * * * * * * * //

dimensions      [1 0 -1 0 0 0 0];

internalField   nonuniform List<scalar> 
99
(
3.16395
6.32876
9.46961
12.5879
15.6897
18.7763
21.8434
24.8915
27.9272
30.9557
33.9764
36.989
39.9853
42.95
45.8914
48.8381
51.9324
56.1517
56.9933
-9.85947
-470.768
-533.88
-502.46
-443.466
-424.766
-420.359
-419.072
-423.933
-463.499
-484.657
-486.469
-487.636
-479.977
-429.724
-386.553
-376.859
-375.756
-383.071
-412.878
-430.362
-433.031
-434.873
-428.552
-405.183
-393.063
-392.373
-400.019
-408.282
-409.635
-397.432
-369.983
-359.996
-359.473
-372.294
-381.445
-382.626
-368.493
-339.329
-326.215
-325.015
-342.522
-370.562
-376.606
-373.869
-343.982
-300.388
-276.374
-274.915
-278.79
-291.993
-300.637
-302.71
-299.797
-292.649
-281.112
-272.98
-268.792
-259.497
-243.205
-236.43
-234.771
-235.254
-238.141
-230.752
-209.757
-192.88
-178.18
-135.617
-75.2766
-27.3904
-6.03051
-0.659833
-0.072387
-0.0011929
-3.61948e-05
0
0
0
0
)
;

boundaryField
{
    sides
    {
        type            calculated;
        value           uniform 0;
    }
    empty
    {
        type            empty;
    }
}


// ************************************************************************* //
