/*--------------------------------*- C++ -*----------------------------------*\
| =========                 |                                                 |
| \\      /  F ield         | OpenFOAM: The Open Source CFD Toolbox           |
|  \\    /   O peration     | Version:  2412                                  |
|   \\  /    A nd           | Website:  www.openfoam.com                      |
|    \\/     M anipulation  |                                                 |
\*---------------------------------------------------------------------------*/
FoamFile
{
    version     2.0;
    format      ascii;
    arch        "LSB;label=32;scalar=64";
    class       volScalarField;
    location    "0.0247294";
    object      p;
}
// * * * * * * * * * * * * * * * * * * * * * * * * * * * * * * * * * * * * * //

dimensions      [1 -1 -2 0 0 0 0];

internalField   nonuniform List<scalar> 
100
(
34058.5
34061.2
34046
34052
34033.9
34038.8
34017.1
34024.4
33971.8
34009
33883.6
34018.5
33747.8
34053.4
33587.1
34077.5
33452.2
34016.4
33371.4
33890.1
33331.3
33713.8
33296
33535.1
33246.6
33378.5
33187.6
33216.8
33049.4
32978.3
32803.6
32684.2
32521.6
32417.8
32347.4
32378.4
32428.4
32353.6
32136.9
32027.1
32716.7
34553.7
35011.8
34665.2
34129.2
33589.8
33162.9
32501.5
31765.9
31450.1
31425.7
31508.6
31593.7
31772.6
31911
31789
31692.9
31842.7
31981.7
31714.9
31395.2
31685.2
32294.8
32128.9
31119.2
30959.8
32166.1
34291.9
41922.2
88448.2
103517
82649.1
97065.2
85172.7
97645.1
98635
96470.6
105493
96453
101149
99736.1
97116.4
98280.3
95332.4
92985.7
94351.4
95194.7
99371.8
99817.6
99182.7
96988.2
96602.2
94328.7
97431.1
98329.3
101613
99372.5
98771.2
95485.8
94154
)
;

boundaryField
{
    sides
    {
        type            zeroGradient;
    }
    empty
    {
        type            empty;
    }
}


// ************************************************************************* //
