x,p,U_0,U_1,U_2
-5,90563.3,0,0,0
-4.94975,90579.3,2.32325,0,0
-4.8995,93778.4,-6.40173,0,0
-4.84925,96986.1,-15.0012,0,0
-4.79899,100758,-15.3561,0,0
-4.74874,104414,-15.6839,0,0
-4.69849,103536,-14.952,0,0
-4.64824,102627,-14.0561,0,0
-4.59799,100877,-8.6377,0,0
-4.54774,98985.7,-3.23432,0,0
-4.49749,94117,1.85087,0,0
-4.44724,89433.8,6.81823,0,0
-4.39698,87935.5,9.76134,0,0
-4.34673,86559.2,12.7176,0,0
-4.29648,86936.9,15.8633,0,0
-4.24623,87427.9,18.6617,0,0
-4.19598,89315.1,17.1763,0,0
-4.14573,91325,15.1956,0,0
-4.09548,94656.5,7.88249,0,0
-4.04523,97835.6,0.675213,0,0
-3.99497,99563.1,-5.52427,0,0
-3.94472,100948,-11.4103,0,0
-3.89447,99411.3,-14.6242,0,0
-3.84422,97954.4,-17.1249,0,0
-3.79397,97111,-14.1371,0,0
-3.74372,96290.6,-10.7959,0,0
-3.69347,95631.5,-4.98115,0,0
-3.64322,95239.1,0.486288,0,0
-3.59296,96555,3.72814,0,0
-3.54271,97740.5,6.70161,0,0
-3.49246,98156.2,8.09255,0,0
-3.44221,98277.9,8.77253,0,0
-3.39196,96796.2,5.57668,0,0
-3.34171,95403.9,2.50763,0,0
-3.29146,94463.9,0.0802434,0,0
-3.24121,93270.8,-2.17873,0,0
-3.19095,90884.5,-3.64376,0,0
-3.1407,87902.3,-10.1725,0,0
-3.09045,82294.3,-39.009,0,0
-3.0402,74705.9,-75.0206,0,0
-2.98995,58942,-140.652,0,0
-2.9397,45876.7,-196.783,0,0
-2.88945,43276.5,-216.071,0,0
-2.8392,41217.9,-230.89,0,0
-2.78894,41137.3,-229.395,0,0
-2.73869,40998.3,-227.163,0,0
-2.68844,40658.3,-222.391,0,0
-2.63819,40334.6,-218.177,0,0
-2.58794,40064.2,-215.777,0,0
-2.53769,39937.9,-213.766,0,0
-2.48744,40256,-212.958,0,0
-2.43719,40683.2,-213.422,0,0
-2.38693,41429.1,-217.602,0,0
-2.33668,42687.9,-223.811,0,0
-2.28643,45369.4,-235.642,0,0
-2.23618,47502.7,-244.994,0,0
-2.18593,48190.8,-247.811,0,0
-2.13568,48796.6,-249.634,0,0
-2.08543,49195.9,-248.96,0,0
-2.03518,49465.7,-248.168,0,0
-1.98492,49426,-247.092,0,0
-1.93467,49445.9,-245.76,0,0
-1.88442,49601.9,-243.844,0,0
-1.83417,49127.1,-239.277,0,0
-1.78392,47280.7,-228.942,0,0
-1.73367,45277.9,-216.906,0,0
-1.68342,42950.1,-201.333,0,0
-1.63317,41089.5,-188.864,0,0
-1.58291,40155.9,-182.554,0,0
-1.53266,39610.6,-177.911,0,0
-1.48241,39802.2,-176.436,0,0
-1.43216,39955.5,-175.309,0,0
-1.38191,40039.3,-174.819,0,0
-1.33166,40213.5,-174.435,0,0
-1.28141,40544.9,-174.237,0,0
-1.23116,40798.3,-173.905,0,0
-1.1809,40921.9,-173.352,0,0
-1.13065,41067.8,-172.619,0,0
-1.0804,41249.2,-171.602,0,0
-1.03015,41281.5,-170.028,0,0
-0.979899,41085.3,-167.604,0,0
-0.929648,40935.9,-165.241,0,0
-0.879397,40855.3,-162.97,0,0
-0.829146,40847,-161.223,0,0
-0.778894,40940.8,-160.217,0,0
-0.728643,41077.1,-159.466,0,0
-0.678392,41271.1,-159.062,0,0
-0.628141,41463.1,-158.665,0,0
-0.577889,41652.4,-158.277,0,0
-0.527638,41881.9,-158.062,0,0
-0.477387,42161.4,-158.06,0,0
-0.427136,42481,-158.312,0,0
-0.376884,42848.5,-158.87,0,0
-0.326633,43207.8,-159.321,0,0
-0.276382,43557.6,-159.651,0,0
-0.226131,43851.5,-159.696,0,0
-0.175879,44083.8,-159.426,0,0
-0.125628,44302.6,-159.037,0,0
-0.0753769,44507.1,-158.52,0,0
-0.0251256,44669.4,-157.703,0,0
0.0251256,44788.8,-156.579,0,0
0.0753769,44678.4,-154.354,0,0
0.125628,44342.7,-151.05,0,0
0.175879,43783.7,-146.372,0,0
0.226131,43014.3,-140.402,0,0
0.276382,42421.4,-135.486,0,0
0.326633,41988.1,-131.524,0,0
0.376884,41767.4,-128.704,0,0
0.427136,41731.7,-126.877,0,0
0.477387,41797.5,-125.636,0,0
0.527638,41948.1,-124.884,0,0
0.577889,42124,-124.342,0,0
0.628141,42320.1,-123.969,0,0
0.678392,42522.4,-123.621,0,0
0.728643,42729.2,-123.292,0,0
0.778894,42970.1,-123.111,0,0
0.829146,43236,-123.04,0,0
0.879397,43506.3,-123.003,0,0
0.929648,43779.8,-122.991,0,0
0.979899,44026.3,-122.801,0,0
1.03015,44254.4,-122.491,0,0
1.0804,44431.4,-121.804,0,0
1.13065,44575.2,-120.87,0,0
1.1809,44547.2,-119.189,0,0
1.23116,44411.8,-117.04,0,0
1.28141,44166.4,-114.165,0,0
1.33166,43855.1,-110.854,0,0
1.38191,43637.4,-108.103,0,0
1.43216,43473.6,-105.673,0,0
1.48241,43399.4,-103.752,0,0
1.53266,43374.6,-102.11,0,0
1.58291,43409.9,-100.686,0,0
1.63317,43476.8,-99.3757,0,0
1.68342,43534.8,-98.1872,0,0
1.73367,43588.2,-97.0599,0,0
1.78392,43647.9,-95.816,0,0
1.83417,43710.6,-94.5159,0,0
1.88442,43720.6,-93.0676,0,0
1.93467,43706.4,-91.5512,0,0
1.98492,43703.3,-89.973,0,0
2.03518,43705.2,-88.3676,0,0
2.08543,43692.7,-86.7495,0,0
2.13568,43674.3,-85.126,0,0
2.18593,43661.1,-83.5936,0,0
2.23618,43650.1,-82.0976,0,0
2.28643,43667.8,-80.4948,0,0
2.33668,43696.5,-78.8517,0,0
2.38693,43655.2,-77.3727,0,0
2.43719,43588.7,-75.953,0,0
2.48744,43656.9,-74.4234,0,0
2.53769,43771.2,-72.8563,0,0
2.58794,43699.1,-71.4802,0,0
2.63819,43566.4,-70.1661,0,0
2.68844,43708,-68.7744,0,0
2.73869,43933.8,-67.3587,0,0
2.78894,43871.7,-65.9875,0,0
2.8392,43726,-64.6292,0,0
2.88945,43850.1,-63.1852,0,0
2.9397,44048.2,-61.7177,0,0
2.98995,43932.7,-60.1009,0,0
3.0402,43736.3,-58.4456,0,0
3.09045,43747.2,-57.0692,0,0
3.1407,43808.5,-55.7602,0,0
3.19095,43845.4,-53.9445,0,0
3.24121,43876.9,-52.0138,0,0
3.29146,43776.5,-50.6206,0,0
3.34171,43648.3,-49.3414,0,0
3.39196,43824.8,-47.8055,0,0
3.44221,44061.6,-46.2189,0,0
3.49246,43950.3,-44.6788,0,0
3.54271,43775.2,-43.1473,0,0
3.59296,43926.1,-41.6823,0,0
3.64322,44132.4,-40.2286,0,0
3.69347,44006.7,-38.6752,0,0
3.74372,43829.2,-37.1061,0,0
3.79397,43942.8,-35.9142,0,0
3.84422,44098,-34.7763,0,0
3.89447,44077,-33.1498,0,0
3.94472,44033,-31.4599,0,0
3.99497,44026.5,-30.0787,0,0
4.04523,44024.3,-28.7336,0,0
4.09548,44108.5,-27.1437,0,0
4.14573,44201.6,-25.528,0,0
4.19598,44082.6,-24.1418,0,0
4.24623,43944,-22.7771,0,0
4.29648,44049.4,-21.1998,0,0
4.34673,44174.7,-19.6053,0,0
4.39698,43979.7,-18.0522,0,0
4.44724,43762.3,-16.502,0,0
4.49749,43896.4,-14.8894,0,0
4.54774,44050.9,-13.2733,0,0
4.59799,43908.1,-11.6424,0,0
4.64824,43751.3,-10.0109,0,0
4.69849,43907.5,-8.57393,0,0
4.74874,44075.1,-7.14403,0,0
4.79899,44048.2,-5.47819,0,0
4.84925,44016.4,-3.8063,0,0
4.8995,44076.7,-2.56234,0,0
4.94975,44138.5,-1.3249,0,0
5,44138.8,0,0,0
