/*--------------------------------*- C++ -*----------------------------------*\
| =========                 |                                                 |
| \\      /  F ield         | OpenFOAM: The Open Source CFD Toolbox           |
|  \\    /   O peration     | Version:  2412                                  |
|   \\  /    A nd           | Website:  www.openfoam.com                      |
|    \\/     M anipulation  |                                                 |
\*---------------------------------------------------------------------------*/
FoamFile
{
    version     2.0;
    format      ascii;
    arch        "LSB;label=32;scalar=64";
    class       surfaceScalarField;
    location    "0.0207394";
    object      phiRhoY_Y_N2;
}
// * * * * * * * * * * * * * * * * * * * * * * * * * * * * * * * * * * * * * //

dimensions      [1 0 -1 0 0 0 0];

internalField   nonuniform List<scalar> 
99
(
18.5025
37.028
55.5966
74.1026
92.5232
110.937
129.417
147.959
166.436
184.602
202.212
219.265
236.218
253.52
271.671
290.919
312.003
336.794
365.141
395.781
429.518
465.379
488.506
490.285
489.05
484.998
482.314
482.283
482.948
487.609
495.752
500.137
501.883
503.413
505.374
507.71
509.891
511.687
513.259
514.815
516.44
517.819
518.302
518.658
520.363
521.757
521.251
521.144
522.285
522.393
522.023
521.654
521.168
521.417
524.786
525.104
517.003
512.535
523.182
539.517
533.831
499.351
496.763
533.52
563.936
536.756
481.329
479.112
543.309
582.711
542.032
471.44
468.178
531.385
586.48
554.392
261.337
24.7542
29.6602
49.6663
64.2037
78.5255
65.7049
47.4602
45.1014
51.3615
58.5077
56.3549
27.9967
1.00168
-4.48038
-2.69801
-0.611229
-0.0810369
-0.00433139
0.00035857
4.83708e-05
6.53193e-07
0
)
;

boundaryField
{
    sides
    {
        type            calculated;
        value           uniform 0;
    }
    empty
    {
        type            empty;
    }
}


// ************************************************************************* //
