/*--------------------------------*- C++ -*----------------------------------*\
| =========                 |                                                 |
| \\      /  F ield         | OpenFOAM: The Open Source CFD Toolbox           |
|  \\    /   O peration     | Version:  2412                                  |
|   \\  /    A nd           | Website:  www.openfoam.com                      |
|    \\/     M anipulation  |                                                 |
\*---------------------------------------------------------------------------*/
FoamFile
{
    version     2.0;
    format      ascii;
    arch        "LSB;label=32;scalar=64";
    class       volVectorField;
    location    "9.90786e-05";
    object      U;
}
// * * * * * * * * * * * * * * * * * * * * * * * * * * * * * * * * * * * * * //

dimensions      [0 1 -1 0 0 0 0];

internalField   nonuniform List<vector> 
1800
(
(2.9 -5.08818e-14 0)
(2.9 1.30175e-14 0)
(2.9 5.3838e-14 0)
(2.9 -5.4304e-14 0)
(2.9 -3.29098e-14 0)
(2.9 -8.50455e-14 0)
(2.9 -1.0398e-13 0)
(2.9 -6.7013e-14 0)
(2.9 -3.07349e-14 0)
(2.9 -1.20231e-14 0)
(2.9 -7.40382e-15 0)
(2.9 -5.7666e-14 0)
(2.9 -9.2823e-14 0)
(2.9 -6.98229e-14 0)
(2.9 -7.46961e-14 0)
(2.9 -4.44521e-14 0)
(2.9 -1.06109e-14 0)
(2.9 -2.68674e-14 0)
(2.9 -3.16245e-14 0)
(2.9 -3.9038e-14 0)
(2.9 -3.05404e-14 0)
(2.9 -2.87643e-14 0)
(2.9 1.42035e-14 0)
(2.9 1.14525e-14 0)
(2.9 -2.32794e-14 0)
(2.9 -8.48349e-14 0)
(2.9 -5.79578e-14 0)
(2.9 -3.44734e-14 0)
(2.9 4.1219e-14 0)
(2.9 5.94577e-14 0)
(2.9 -3.05391e-14 0)
(2.9 5.22855e-15 0)
(2.9 -6.34465e-14 0)
(2.9 -5.27275e-14 0)
(2.9 -1.25556e-14 0)
(2.9 1.07864e-14 0)
(2.9 -1.43488e-14 0)
(2.9 1.33881e-14 0)
(2.9 9.36096e-15 0)
(2.9 -2.16637e-14 0)
(2.9 -1.51205e-15 0)
(2.9 3.38834e-14 0)
(2.9 5.05611e-15 0)
(2.9 5.01418e-15 0)
(2.9 -2.61132e-14 0)
(2.9 -5.18528e-14 0)
(2.9 1.29519e-14 0)
(2.9 7.47219e-14 0)
(2.9 4.51861e-14 0)
(2.9 5.96623e-14 0)
(2.9 4.53511e-14 0)
(2.9 -9.95217e-15 0)
(2.9 -1.59239e-14 0)
(2.9 -2.78154e-14 0)
(2.9 3.15555e-14 0)
(2.9 3.33135e-14 0)
(2.9 -4.56473e-14 0)
(2.9 -2.22963e-14 0)
(2.9 -5.27759e-14 0)
(2.9 -9.97522e-14 0)
(2.9 -1.37559e-13 0)
(2.9 -1.12485e-14 0)
(2.9 4.01262e-14 0)
(2.9 -3.70416e-14 0)
(2.9 -5.56234e-14 0)
(2.9 -1.8289e-13 0)
(2.9 -1.78067e-13 0)
(2.9 -1.25821e-13 0)
(2.9 -5.85543e-14 0)
(2.9 -2.74719e-16 0)
(2.9 1.73052e-14 0)
(2.9 -1.07388e-13 0)
(2.9 -1.81743e-13 0)
(2.9 -1.60992e-13 0)
(2.9 -4.41283e-14 0)
(2.9 -6.0915e-15 0)
(2.9 -1.36711e-14 0)
(2.9 -8.7453e-14 0)
(2.9 -1.00775e-13 0)
(2.9 -8.69008e-14 0)
(2.9 -9.18765e-14 0)
(2.9 -7.27423e-15 0)
(2.9 9.47332e-14 0)
(2.9 2.61065e-14 0)
(2.9 -6.5562e-14 0)
(2.9 -1.88606e-13 0)
(2.9 -1.29018e-13 0)
(2.9 -1.14666e-13 0)
(2.9 2.72614e-15 0)
(2.9 4.25658e-14 0)
(2.9 -8.69511e-14 0)
(2.9 -2.17608e-14 0)
(2.9 -1.52242e-13 0)
(2.9 -1.07503e-13 0)
(2.9 -4.96492e-14 0)
(2.9 -2.9525e-14 0)
(2.9 -1.90949e-14 0)
(2.9 4.21729e-14 0)
(2.9 -1.3919e-14 0)
(2.9 -7.09888e-14 0)
(2.9 -1.19993e-15 0)
(2.9 7.00532e-14 0)
(2.9 7.86443e-15 0)
(2.9 1.13084e-14 0)
(2.9 -8.60319e-14 0)
(2.9 -1.18778e-13 0)
(2.9 2.04324e-14 0)
(2.9 6.63464e-14 0)
(2.9 1.06429e-13 0)
(2.9 1.36474e-13 0)
(2.9 2.56791e-14 0)
(2.9 -8.5892e-14 0)
(2.9 -6.05989e-14 0)
(2.9 -9.59502e-14 0)
(2.9 3.79365e-14 0)
(2.9 5.42643e-14 0)
(2.9 -4.11297e-14 0)
(2.9 -5.137e-14 0)
(2.9 -1.50044e-13 0)
(2.9 -1.96281e-13 0)
(2.9 -5.66817e-14 0)
(2.9 -3.97551e-14 0)
(2.9 -1.5921e-15 0)
(2.9 -9.74942e-15 0)
(2.9 -2.78544e-14 0)
(2.9 -1.41531e-13 0)
(2.9 -1.8737e-13 0)
(2.9 -7.70933e-14 0)
(2.9 -1.32342e-15 0)
(2.9 -8.80287e-14 0)
(2.9 -1.30254e-13 0)
(2.9 -1.67728e-13 0)
(2.9 -1.46756e-13 0)
(2.9 -1.20522e-13 0)
(2.9 -8.15745e-14 0)
(2.9 4.86559e-14 0)
(2.9 -6.04976e-15 0)
(2.9 -6.18669e-14 0)
(2.9 -3.31751e-14 0)
(2.9 -6.24407e-14 0)
(2.9 -6.09946e-15 0)
(2.9 3.20673e-14 0)
(2.9 1.34918e-13 0)
(2.9 5.94827e-14 0)
(2.9 -6.81281e-14 0)
(2.9 -1.94721e-13 0)
(2.9 -9.24829e-14 0)
(2.9 -3.80856e-14 0)
(2.9 -3.87972e-14 0)
(2.9 -5.5881e-14 0)
(2.9 -6.68044e-14 0)
(2.9 -9.30287e-14 0)
(2.9 -1.439e-13 0)
(2.9 -1.60633e-13 0)
(2.9 -7.14709e-14 0)
(2.9 -5.25358e-14 0)
(2.9 4.32064e-15 0)
(2.9 1.44847e-14 0)
(2.9 -9.9616e-14 0)
(2.9 -1.47348e-13 0)
(2.9 -3.92068e-14 0)
(2.9 -2.66333e-14 0)
(2.9 1.43587e-14 0)
(2.9 -1.51809e-14 0)
(2.9 -6.87853e-14 0)
(2.9 -7.29483e-14 0)
(2.9 -4.487e-14 0)
(2.9 2.90105e-14 0)
(2.9 3.30457e-14 0)
(2.9 6.38978e-15 0)
(2.9 -2.87327e-14 0)
(2.9 -5.85553e-14 0)
(2.9 -7.48183e-14 0)
(2.9 -8.25744e-14 0)
(2.9 6.26365e-16 0)
(2.9 -8.53098e-15 0)
(2.9 -4.63632e-14 0)
(2.9 -5.06324e-14 0)
(2.9 -1.12097e-13 0)
(2.9 -1.47453e-13 0)
(2.9 -7.75694e-15 0)
(2.9 -8.92845e-14 0)
(2.9 -2.64991e-14 0)
(2.9 -8.19969e-14 0)
(2.9 -2.98265e-14 0)
(2.9 -8.42833e-14 0)
(2.9 -1.27063e-13 0)
(2.9 -7.67654e-14 0)
(2.9 -3.01408e-14 0)
(2.9 -1.40376e-13 0)
(2.9 -1.62382e-13 0)
(2.9 -1.72323e-13 0)
(2.9 -9.21734e-14 0)
(2.9 -1.06434e-13 0)
(2.9 -1.18978e-13 0)
(2.9 -5.17154e-14 0)
(2.9 -6.08396e-14 0)
(2.9 -3.43511e-14 0)
(2.9 2.43414e-14 0)
(2.9 5.75999e-15 0)
(2.9 7.30077e-14 0)
(2.9 8.35231e-14 0)
(2.9 1.01285e-14 0)
(2.9 -3.69384e-15 0)
(2.9 -4.74312e-14 0)
(2.9 -1.24853e-13 0)
(2.9 -4.67656e-14 0)
(2.9 -3.51356e-14 0)
(2.9 1.02806e-15 0)
(2.9 -2.51553e-14 0)
(2.9 -9.40622e-15 0)
(2.9 -3.4094e-14 0)
(2.9 -1.0379e-13 0)
(2.9 -6.44482e-14 0)
(2.9 -8.68054e-14 0)
(2.9 -2.0136e-16 0)
(2.9 4.03924e-14 0)
(2.9 -1.22079e-14 0)
(2.9 -8.62365e-14 0)
(2.9 -1.52163e-13 0)
(2.9 -8.01361e-14 0)
(2.9 -6.69846e-14 0)
(2.9 -4.64025e-14 0)
(2.9 -4.03665e-14 0)
(2.9 -6.4774e-14 0)
(2.9 -7.7722e-14 0)
(2.9 -3.55979e-14 0)
(2.9 3.49597e-14 0)
(2.9 -7.32438e-14 0)
(2.9 -9.70327e-14 0)
(2.9 -8.22395e-14 0)
(2.9 1.12038e-14 0)
(2.9 -3.01464e-14 0)
(2.9 -5.44993e-14 0)
(2.9 -5.30554e-14 0)
(2.9 -4.78672e-14 0)
(2.9 -1.7314e-14 0)
(2.9 -3.83766e-14 0)
(2.9 -2.13655e-14 0)
(2.9 -1.42942e-14 0)
(2.9 -4.0379e-14 0)
(2.9 -1.45197e-13 0)
(2.9 -8.37063e-14 0)
(2.9 -1.14852e-13 0)
(2.9 -5.72648e-14 0)
(2.9 -4.56402e-14 0)
(2.9 -5.3433e-14 0)
(2.9 -5.31651e-14 0)
(2.9 -3.23525e-14 0)
(2.9 -1.0704e-13 0)
(2.9 -1.40415e-13 0)
(2.9 -1.57392e-13 0)
(2.9 -7.42118e-14 0)
(2.9 -2.61527e-14 0)
(2.9 -8.61142e-14 0)
(2.9 -1.76699e-13 0)
(2.9 -1.05746e-13 0)
(2.9 -3.82047e-14 0)
(2.9 8.43931e-14 0)
(2.9 4.80341e-14 0)
(2.9 5.50957e-14 0)
(2.9 1.81632e-14 0)
(2.9 -1.00646e-13 0)
(2.9 -8.34058e-14 0)
(2.9 -5.55798e-14 0)
(2.9 -6.1258e-14 0)
(2.9 -1.05082e-15 0)
(2.9 -4.32712e-14 0)
(2.9 3.81672e-14 0)
(2.9 2.05204e-14 0)
(2.9 -1.53766e-14 0)
(2.9 3.90882e-14 0)
(2.9 8.93147e-15 0)
(2.9 1.77969e-14 0)
(2.9 -6.18724e-14 0)
(2.9 -1.03469e-14 0)
(2.9 4.39293e-14 0)
(2.9 -3.52475e-14 0)
(2.9 -6.72078e-14 0)
(2.9 -7.05677e-14 0)
(2.9 -9.43037e-14 0)
(2.9 -9.54317e-14 0)
(2.9 -1.207e-13 0)
(2.9 -5.2046e-14 0)
(2.9 -4.12153e-14 0)
(2.9 -1.01761e-13 0)
(2.9 -3.56023e-14 0)
(2.9 2.96183e-14 0)
(2.9 -6.79806e-14 0)
(2.9 -9.31602e-14 0)
(2.9 -5.57234e-14 0)
(2.9 2.55232e-14 0)
(2.9 -1.41503e-14 0)
(2.9 -1.02231e-13 0)
(2.9 -1.31428e-13 0)
(2.9 -9.94077e-14 0)
(2.9 -3.92995e-15 0)
(2.9 -6.3564e-15 0)
(2.9 6.85824e-15 0)
(2.9 8.26189e-14 0)
(2.9 -8.43007e-14 0)
(2.9 -9.71687e-14 0)
(2.9 -9.29201e-14 0)
(2.9 -1.01206e-13 0)
(2.9 2.56539e-15 0)
(2.9 1.65365e-14 0)
(2.9 4.17491e-14 0)
(2.9 1.25921e-14 0)
(2.9 -8.4267e-14 0)
(2.9 -1.27369e-13 0)
(2.9 -1.46111e-13 0)
(2.9 -1.35141e-13 0)
(2.9 -1.15342e-13 0)
(2.9 -4.94158e-14 0)
(2.9 -5.47244e-14 0)
(2.9 -1.76713e-13 0)
(2.9 -5.9877e-14 0)
(2.9 -1.25839e-14 0)
(2.9 4.74205e-14 0)
(2.9 1.7338e-14 0)
(2.9 -4.14692e-14 0)
(2.9 -8.02697e-14 0)
(2.9 -6.15833e-14 0)
(2.9 -5.46169e-14 0)
(2.9 -2.32124e-14 0)
(2.9 1.16458e-14 0)
(2.9 6.5578e-14 0)
(2.9 -6.09427e-17 0)
(2.9 1.34389e-14 0)
(2.9 2.88766e-14 0)
(2.9 -6.12474e-14 0)
(2.9 -1.01087e-14 0)
(2.9 1.67234e-14 0)
(2.9 -2.85915e-14 0)
(2.9 -1.05876e-13 0)
(2.9 -1.46443e-13 0)
(2.9 -1.31308e-13 0)
(2.9 -1.06215e-13 0)
(2.9 -1.45919e-13 0)
(2.9 -4.20891e-14 0)
(2.9 -8.70403e-14 0)
(2.9 -5.84895e-14 0)
(2.9 -5.48868e-14 0)
(2.9 1.86463e-16 0)
(2.9 -1.47207e-14 0)
(2.9 -2.79376e-14 0)
(2.9 -6.22756e-14 0)
(2.9 -7.50916e-14 0)
(2.9 -1.19153e-13 0)
(2.9 -4.96656e-14 0)
(2.9 2.49682e-14 0)
(2.9 -4.44346e-14 0)
(2.9 -7.70478e-14 0)
(2.9 -1.44065e-13 0)
(2.9 -1.13166e-13 0)
(2.9 -8.64148e-14 0)
(2.9 -2.46543e-14 0)
(2.9 3.25892e-14 0)
(2.9 -4.27068e-14 0)
(2.9 2.89692e-14 0)
(2.9 -5.67577e-14 0)
(2.9 -2.58567e-14 0)
(2.9 -1.1832e-13 0)
(2.9 -2.90315e-14 0)
(2.9 6.74029e-14 0)
(2.9 8.32337e-14 0)
(2.9 1.16443e-13 0)
(2.9 5.7055e-14 0)
(2.9 -4.74065e-14 0)
(2.9 -9.49273e-14 0)
(2.9 -1.15611e-13 0)
(2.9 -8.03684e-14 0)
(2.9 -1.35751e-13 0)
(2.9 -5.20592e-14 0)
(2.9 -2.23545e-14 0)
(2.9 -9.37723e-14 0)
(2.9 -4.32816e-14 0)
(2.9 -2.24052e-14 0)
(2.9 -2.54969e-14 0)
(2.9 -3.0418e-14 0)
(2.9 -1.3376e-13 0)
(2.9 -1.06806e-13 0)
(2.9 -1.2168e-14 0)
(2.9 -2.30299e-14 0)
(2.9 -3.05187e-14 0)
(2.9 4.91669e-14 0)
(2.9 7.81168e-14 0)
(2.9 1.87218e-14 0)
(2.9 3.74315e-14 0)
(2.9 3.07928e-15 0)
(2.9 -1.0122e-13 0)
(2.9 -1.18769e-14 0)
(2.9 -3.05646e-14 0)
(2.9 -5.26744e-14 0)
(2.9 -1.46428e-13 0)
(2.9 -1.94761e-13 0)
(2.9 -1.70862e-13 0)
(2.9 -8.28095e-14 0)
(2.9 -1.51423e-13 0)
(2.9 -1.18534e-13 0)
(2.9 -9.85049e-14 0)
(2.9 -1.11033e-14 0)
(2.9 7.92342e-15 0)
(2.9 5.24754e-14 0)
(2.9 5.10221e-14 0)
(2.9 -4.21438e-14 0)
(2.9 -9.36764e-14 0)
(2.9 -8.30561e-14 0)
(2.9 -1.34673e-13 0)
(2.9 -4.32382e-14 0)
(2.9 -3.91605e-14 0)
(2.9 -1.0984e-13 0)
(2.9 -9.75544e-14 0)
(2.9 -1.36371e-13 0)
(2.9 -1.57771e-13 0)
(2.9 -7.89143e-14 0)
(2.9 -6.17102e-14 0)
(2.9 -4.58866e-14 0)
(2.9 -6.45001e-14 0)
(2.9 -5.99624e-15 0)
(2.9 5.24947e-16 0)
(2.9 3.61858e-14 0)
(2.9 -1.21685e-13 0)
(2.9 -2.99396e-14 0)
(2.9 -1.58856e-14 0)
(2.9 9.58711e-14 0)
(2.9 1.71963e-13 0)
(2.9 7.36732e-14 0)
(2.9 2.25102e-17 0)
(2.9 -5.83047e-14 0)
(2.9 -4.35338e-14 0)
(2.9 -4.05282e-14 0)
(2.9 -1.18482e-13 0)
(2.9 -1.15642e-13 0)
(2.9 -5.32329e-14 0)
(2.9 -2.03144e-14 0)
(2.9 7.26698e-14 0)
(2.9 1.26566e-14 0)
(2.9 -7.4103e-14 0)
(2.9 -1.06651e-13 0)
(2.9 -8.59167e-14 0)
(2.9 -2.35941e-14 0)
(2.9 4.68492e-14 0)
(2.9 -3.37122e-15 0)
(2.9 3.30497e-16 0)
(2.9 2.97665e-14 0)
(2.9 1.03914e-13 0)
(2.9 7.80982e-14 0)
(2.9 6.45785e-14 0)
(2.9 3.57339e-15 0)
(2.9 4.28912e-15 0)
(2.9 3.09687e-14 0)
(2.9 2.13432e-16 0)
(2.9 -3.83854e-14 0)
(2.9 -7.73618e-14 0)
(2.9 -1.08326e-13 0)
(2.9 -1.01996e-13 0)
(2.9 2.60367e-14 0)
(2.9 -7.35791e-14 0)
(2.9 -7.29288e-14 0)
(2.9 -7.76771e-14 0)
(2.9 -5.36212e-15 0)
(2.9 5.74964e-14 0)
(2.9 7.00312e-14 0)
(2.9 6.08795e-14 0)
(2.9 -1.93034e-14 0)
(2.9 -5.03643e-14 0)
(2.9 -4.75788e-14 0)
(2.9 -8.33173e-14 0)
(2.9 -6.9754e-14 0)
(2.9 -3.6886e-14 0)
(2.9 -7.87895e-14 0)
(2.9 -1.39487e-13 0)
(2.9 -1.36177e-13 0)
(2.9 -9.5079e-14 0)
(2.9 -4.85903e-14 0)
(2.9 -5.64613e-14 0)
(2.9 -6.58272e-14 0)
(2.9 -4.70279e-14 0)
(2.9 -4.66813e-14 0)
(2.9 2.68595e-14 0)
(2.9 1.94682e-14 0)
(2.9 -8.01733e-15 0)
(2.9 -2.07006e-14 0)
(2.9 -6.57757e-14 0)
(2.9 3.02905e-14 0)
(2.9 5.90178e-14 0)
(2.9 9.17272e-15 0)
(2.9 3.6857e-14 0)
(2.9 -1.97236e-14 0)
(2.9 -3.03786e-14 0)
(2.9 -7.87245e-14 0)
(2.9 -1.39674e-13 0)
(2.9 -1.25993e-13 0)
(2.9 -8.49775e-14 0)
(2.9 9.4562e-15 0)
(2.9 5.79897e-14 0)
(2.9 5.56431e-14 0)
(2.9 -7.40258e-14 0)
(2.9 -1.42887e-13 0)
(2.9 -1.97026e-14 0)
(2.9 7.27361e-14 0)
(2.9 -9.02298e-15 0)
(2.9 -2.70346e-14 0)
(2.9 2.37514e-14 0)
(2.9 1.62709e-14 0)
(2.9 1.19549e-13 0)
(2.9 1.08248e-13 0)
(2.9 1.02035e-13 0)
(2.9 9.44436e-15 0)
(2.9 7.53597e-14 0)
(2.9 -2.60721e-16 0)
(2.9 4.91199e-14 0)
(2.9 -1.6981e-14 0)
(2.9 -2.005e-14 0)
(2.9 7.10261e-15 0)
(2.9 4.82624e-14 0)
(2.9 6.13273e-14 0)
(2.9 3.12855e-14 0)
(2.9 3.09997e-14 0)
(2.9 1.77606e-14 0)
(2.9 7.05858e-14 0)
(2.9 7.8934e-14 0)
(2.9 5.32707e-14 0)
(2.9 3.60839e-14 0)
(2.9 4.46196e-14 0)
(2.9 -2.50257e-14 0)
(2.9 -1.81795e-14 0)
(2.9 2.00602e-14 0)
(2.9 1.35902e-14 0)
(2.9 2.52347e-14 0)
(2.9 2.71183e-14 0)
(2.9 -5.03432e-14 0)
(2.9 -6.78755e-14 0)
(2.9 2.11603e-14 0)
(2.9 -3.00198e-14 0)
(2.9 -2.48065e-14 0)
(2.9 -2.85818e-14 0)
(2.9 -3.29804e-14 0)
(2.9 -9.8731e-14 0)
(2.9 -1.37516e-14 0)
(2.9 -2.54936e-15 0)
(2.9 5.27344e-14 0)
(2.9 5.79675e-14 0)
(2.9 2.52728e-15 0)
(2.9 -6.65601e-14 0)
(2.9 -1.0974e-13 0)
(2.9 -3.48446e-15 0)
(2.9 8.63944e-14 0)
(2.9 1.48947e-14 0)
(2.9 1.7929e-14 0)
(2.9 -4.75763e-14 0)
(2.9 -8.31787e-14 0)
(2.9 -5.21741e-14 0)
(2.9 -1.50068e-14 0)
(2.9 7.07113e-14 0)
(2.9 4.00092e-14 0)
(2.9 1.20097e-13 0)
(2.9 -2.39762e-14 0)
(2.9 -1.01123e-13 0)
(2.9 -5.57871e-14 0)
(2.9 3.55383e-14 0)
(2.9 -5.23333e-14 0)
(2.9 -5.24216e-14 0)
(2.9 -4.1376e-14 0)
(2.9 3.48862e-15 0)
(2.9 5.19202e-14 0)
(2.9 1.10398e-13 0)
(2.9 5.20657e-14 0)
(2.9 2.86013e-14 0)
(2.9 2.14207e-14 0)
(2.9 -7.25367e-14 0)
(2.9 7.98402e-14 0)
(2.9 -1.35176e-14 0)
(2.9 7.69154e-14 0)
(2.9 7.01786e-14 0)
(2.9 9.07183e-14 0)
(2.9 9.44709e-15 0)
(2.9 2.67738e-14 0)
(2.9 5.70137e-14 0)
(2.9 1.06203e-13 0)
(2.9 9.71769e-14 0)
(2.9 8.81905e-14 0)
(2.9 4.76561e-14 0)
(2.9 3.53936e-14 0)
(2.9 9.73114e-14 0)
(2.9 1.23203e-14 0)
(2.9 -3.36479e-15 0)
(2.9 9.38718e-14 0)
(2.9 1.00772e-13 0)
(2.9 3.13814e-14 0)
(2.9 9.39617e-14 0)
(2.9 1.44336e-14 0)
(2.9 -2.89151e-15 0)
(2.9 3.48534e-14 0)
(2.9 -2.78694e-15 0)
(2.9 -4.27631e-14 0)
(2.9 -7.23785e-14 0)
(2.9 -1.67533e-14 0)
(2.9 -1.40916e-15 0)
(2.9 -5.44043e-14 0)
(2.9 2.07656e-15 0)
(2.9 9.3706e-14 0)
(2.9 4.39749e-14 0)
(2.9 -3.10207e-14 0)
(2.9 -1.14196e-13 0)
(2.9 -6.25083e-14 0)
(2.9 7.95618e-14 0)
(2.9 9.55874e-14 0)
(2.9 6.91788e-15 0)
(2.9 4.55523e-14 0)
(2.9 3.67111e-14 0)
(2.9 4.651e-14 0)
(2.9 2.27402e-14 0)
(2.9 3.31007e-14 0)
(2.9 1.56967e-13 0)
(2.9 8.14851e-14 0)
(2.9 8.14766e-14 0)
(2.9 7.32611e-14 0)
(2.9 -2.52553e-14 0)
(2.9 -8.14074e-14 0)
(2.9 -4.25283e-15 0)
(2.9 -6.11858e-14 0)
(2.9 -3.08259e-14 0)
(2.9 -5.01313e-14 0)
(2.9 -1.54931e-14 0)
(2.9 -5.63954e-14 0)
(2.9 5.28633e-14 0)
(2.9 -1.79087e-14 0)
(2.9 2.23583e-15 0)
(2.9 -7.03511e-15 0)
(2.9 -1.2246e-13 0)
(2.9 -9.87065e-15 0)
(2.9 -1.85404e-15 0)
(2.9 1.12e-13 0)
(2.9 1.463e-13 0)
(2.9 9.11038e-14 0)
(2.9 -7.75062e-15 0)
(2.9 1.64503e-14 0)
(2.9 7.63703e-14 0)
(2.9 1.19805e-13 0)
(2.9 6.49332e-14 0)
(2.9 7.5454e-14 0)
(2.9 2.62881e-14 0)
(2.9 -1.28349e-14 0)
(2.9 5.03972e-14 0)
(2.9 -7.41102e-15 0)
(2.9 1.50392e-14 0)
(2.9 4.56285e-14 0)
(2.9 3.32783e-14 0)
(2.9 -3.08516e-14 0)
(2.9 1.37817e-14 0)
(2.9 -1.51052e-14 0)
(2.9 2.40697e-14 0)
(2.9 2.99895e-14 0)
(2.9 1.17788e-14 0)
(2.9 -1.23703e-14 0)
(2.9 -1.18631e-13 0)
(2.9 6.45583e-14 0)
(2.9 1.21811e-13 0)
(2.9 -3.98221e-14 0)
(2.9 1.23474e-14 0)
(2.9 2.27915e-14 0)
(2.9 -2.15319e-14 0)
(2.9 -5.19993e-14 0)
(2.9 -1.18593e-13 0)
(2.9 -5.65383e-14 0)
(2.9 4.84217e-14 0)
(2.9 1.08522e-13 0)
(2.9 3.10568e-14 0)
(2.9 8.07399e-14 0)
(2.9 5.56736e-14 0)
(2.9 5.46857e-14 0)
(2.9 -1.96271e-15 0)
(2.9 1.50797e-14 0)
(2.9 9.68762e-14 0)
(2.9 -2.39529e-15 0)
(2.9 -1.17899e-14 0)
(2.9 5.13918e-14 0)
(2.9 1.79883e-14 0)
(2.9 -2.44575e-14 0)
(2.9 -5.49799e-14 0)
(2.9 -2.82344e-14 0)
(2.9 2.72426e-15 0)
(2.9 -3.44011e-14 0)
(2.9 -4.06313e-14 0)
(2.9 -3.69413e-14 0)
(2.9 -3.5825e-14 0)
(2.9 -4.92679e-14 0)
(2.9 1.64543e-14 0)
(2.9 2.63627e-14 0)
(2.9 -3.3107e-14 0)
(2.9 -7.58473e-14 0)
(2.9 -1.40183e-14 0)
(2.9 7.91349e-14 0)
(2.9 1.0653e-13 0)
(2.9 4.3871e-14 0)
(2.9 2.31299e-14 0)
(2.9 5.62772e-14 0)
(2.9 3.98291e-14 0)
(2.9 1.03068e-13 0)
(2.9 1.13997e-14 0)
(2.9 2.40174e-14 0)
(2.9 1.80754e-14 0)
(2.9 -6.7514e-15 0)
(2.9 -5.11113e-14 0)
(2.9 2.09196e-14 0)
(2.9 -2.55254e-14 0)
(2.9 -3.25139e-14 0)
(2.9 -1.63422e-14 0)
(2.9 -5.1929e-14 0)
(2.9 -6.15901e-14 0)
(2.9 7.98694e-16 0)
(2.9 6.12888e-14 0)
(2.9 7.33402e-15 0)
(2.9 1.34193e-14 0)
(2.9 -4.21423e-14 0)
(2.9 -4.39549e-14 0)
(2.9 4.26734e-14 0)
(2.9 1.56442e-13 0)
(2.9 -3.09822e-15 0)
(2.9 -6.57806e-15 0)
(2.9 -2.73445e-14 0)
(2.9 5.12203e-14 0)
(2.9 -9.26741e-15 0)
(2.9 -2.17812e-14 0)
(2.9 -2.35721e-14 0)
(2.9 -1.71336e-14 0)
(2.9 1.8256e-14 0)
(2.9 -1.78878e-15 0)
(2.9 7.1074e-14 0)
(2.9 6.13548e-14 0)
(2.9 9.18474e-14 0)
(2.9 7.32966e-14 0)
(2.9 3.2079e-14 0)
(2.9 -2.95046e-14 0)
(2.9 -3.44575e-14 0)
(2.9 -2.75333e-14 0)
(2.9 -1.43387e-14 0)
(2.9 7.25981e-14 0)
(2.9 4.46006e-14 0)
(2.9 -2.69948e-14 0)
(2.9 1.5024e-14 0)
(2.9 -1.79749e-14 0)
(2.9 -5.30718e-14 0)
(2.9 1.439e-14 0)
(2.9 -5.37958e-14 0)
(2.9 -1.03136e-13 0)
(2.9 -6.19342e-14 0)
(2.9 5.09742e-14 0)
(2.9 6.83518e-14 0)
(2.9 5.13307e-15 0)
(2.9 -7.98573e-15 0)
(2.9 4.40535e-14 0)
(2.9 6.13686e-14 0)
(2.9 5.51904e-14 0)
(2.9 4.67735e-14 0)
(2.9 6.02389e-14 0)
(2.9 9.9199e-14 0)
(2.9 6.68187e-14 0)
(2.9 3.75278e-14 0)
(2.9 -2.6717e-14 0)
(2.9 2.18046e-14 0)
(2.9 -4.11956e-15 0)
(2.9 -2.8682e-14 0)
(2.9 1.00807e-14 0)
(2.9 1.6633e-14 0)
(2.9 -5.35179e-14 0)
(2.9 -3.00835e-14 0)
(2.9 7.38504e-15 0)
(2.9 1.18832e-15 0)
(2.9 -1.80095e-14 0)
(2.9 5.34395e-14 0)
(2.9 8.74444e-14 0)
(2.9 4.73308e-14 0)
(2.9 3.59601e-14 0)
(2.9 -3.3273e-14 0)
(2.9 3.43735e-14 0)
(2.9 4.74277e-14 0)
(2.9 1.20101e-13 0)
(2.9 -3.01394e-14 0)
(2.9 -7.10161e-14 0)
(2.9 1.95647e-14 0)
(2.9 9.6457e-14 0)
(2.9 1.2581e-14 0)
(2.9 -3.91184e-15 0)
(2.9 1.62928e-14 0)
(2.9 -4.96404e-14 0)
(2.9 -4.75616e-14 0)
(2.9 5.36954e-14 0)
(2.9 8.43495e-14 0)
(2.9 7.8695e-14 0)
(2.9 1.54881e-13 0)
(2.9 1.28304e-13 0)
(2.9 7.97761e-15 0)
(2.9 -1.16092e-13 0)
(2.9 -2.73768e-14 0)
(2.9 1.487e-14 0)
(2.9 5.49352e-14 0)
(2.9 1.27401e-13 0)
(2.9 1.07053e-13 0)
(2.9 6.19657e-14 0)
(2.9 8.55184e-14 0)
(2.9 1.52224e-14 0)
(2.9 2.47612e-14 0)
(2.9 2.12908e-15 0)
(2.9 -1.06571e-13 0)
(2.9 -1.91296e-13 0)
(2.9 -5.64749e-14 0)
(2.9 7.56677e-14 0)
(2.9 9.91129e-14 0)
(2.9 6.97078e-14 0)
(2.9 6.63777e-14 0)
(2.9 8.53592e-14 0)
(2.9 2.2221e-14 0)
(2.9 7.07434e-14 0)
(2.9 8.44427e-14 0)
(2.9 3.91591e-14 0)
(2.9 9.98462e-14 0)
(2.9 8.22872e-14 0)
(2.9 2.00668e-14 0)
(2.9 -4.19596e-14 0)
(2.9 -3.94362e-14 0)
(2.9 -6.98532e-14 0)
(2.9 -2.80627e-14 0)
(2.9 6.32576e-14 0)
(2.9 7.20729e-14 0)
(2.9 1.01856e-14 0)
(2.9 9.95777e-15 0)
(2.9 1.71556e-14 0)
(2.9 5.3471e-14 0)
(2.9 7.04293e-14 0)
(2.9 2.4498e-14 0)
(2.9 3.83019e-14 0)
(2.9 4.50577e-14 0)
(2.9 1.3892e-14 0)
(2.9 -1.26155e-14 0)
(2.9 1.06623e-13 0)
(2.9 1.2942e-13 0)
(2.9 1.74366e-13 0)
(2.9 -1.37563e-13 0)
(2.9 -1.25414e-13 0)
(2.9 -1.92564e-14 0)
(2.9 3.93263e-14 0)
(2.9 1.93497e-14 0)
(2.9 -2.07848e-14 0)
(2.9 2.99156e-14 0)
(2.9 2.72559e-14 0)
(2.9 3.0026e-14 0)
(2.9 1.244e-13 0)
(2.9 5.38496e-14 0)
(2.9 5.01934e-14 0)
(2.9 8.10837e-14 0)
(2.9 7.42432e-14 0)
(2.9 -9.94213e-15 0)
(2.9 -8.49041e-14 0)
(2.9 3.24189e-14 0)
(2.9 1.08721e-13 0)
(2.9 8.78486e-14 0)
(2.9 1.19007e-13 0)
(2.9 1.13845e-13 0)
(2.9 9.20615e-14 0)
(2.9 5.75588e-14 0)
(2.9 8.59817e-14 0)
(2.9 9.98403e-14 0)
(2.9 -5.65441e-15 0)
(2.9 -6.3313e-14 0)
(2.9 -1.31596e-13 0)
(2.9 -1.98177e-14 0)
(2.9 6.12614e-14 0)
(2.9 6.33147e-14 0)
(2.9 1.95951e-14 0)
(2.9 9.10289e-15 0)
(2.9 7.07777e-14 0)
(2.9 1.40228e-15 0)
(2.9 2.82229e-14 0)
(2.9 1.00698e-14 0)
(2.9 -7.32073e-14 0)
(2.9 2.84434e-14 0)
(2.9 -8.85248e-15 0)
(2.9 2.52239e-14 0)
(2.9 -2.60178e-15 0)
(2.9 -4.61486e-14 0)
(2.9 -1.05619e-13 0)
(2.9 -6.13976e-14 0)
(2.9 -4.05003e-14 0)
(2.9 4.90878e-14 0)
(2.9 -2.28225e-14 0)
(2.9 6.518e-15 0)
(2.9 -5.6753e-14 0)
(2.9 -2.07343e-14 0)
(2.9 1.49597e-14 0)
(2.9 -7.88317e-15 0)
(2.9 2.43353e-14 0)
(2.9 -5.76548e-15 0)
(2.9 -1.36356e-14 0)
(2.9 5.59945e-14 0)
(2.9 7.45596e-14 0)
(2.9 2.93992e-14 0)
(2.9 9.92967e-14 0)
(2.9 -5.58379e-14 0)
(2.9 -7.74901e-14 0)
(2.9 -2.77019e-15 0)
(2.9 1.59037e-14 0)
(2.9 5.41168e-14 0)
(2.9 4.86823e-14 0)
(2.9 -7.81851e-15 0)
(2.9 2.36288e-14 0)
(2.9 6.39598e-14 0)
(2.9 8.62489e-14 0)
(2.9 1.74851e-14 0)
(2.9 6.52931e-16 0)
(2.9 1.85856e-14 0)
(2.9 4.79378e-14 0)
(2.9 5.02095e-14 0)
(2.9 5.62421e-15 0)
(2.9 2.20671e-14 0)
(2.9 8.11529e-14 0)
(2.9 1.17328e-13 0)
(2.9 1.1427e-13 0)
(2.9 1.09764e-13 0)
(2.9 6.73317e-14 0)
(2.9 3.24939e-14 0)
(2.9 7.99384e-14 0)
(2.9 5.53131e-14 0)
(2.9 6.49003e-14 0)
(2.9 -1.27123e-14 0)
(2.9 4.17772e-14 0)
(2.9 3.18849e-14 0)
(2.9 3.2437e-14 0)
(2.9 1.90955e-15 0)
(2.9 8.37317e-14 0)
(2.9 1.79511e-14 0)
(2.9 2.55748e-14 0)
(2.9 4.47746e-14 0)
(2.9 -2.2327e-14 0)
(2.9 -8.00856e-14 0)
(2.9 -5.28841e-14 0)
(2.9 -3.58559e-14 0)
(2.9 -8.06658e-14 0)
(2.9 -4.49452e-14 0)
(2.9 1.60787e-15 0)
(2.9 -7.40479e-14 0)
(2.9 -3.14385e-14 0)
(2.9 -7.23577e-14 0)
(2.9 -1.39786e-13 0)
(2.9 -6.56983e-14 0)
(2.9 -7.91489e-14 0)
(2.9 -1.05261e-16 0)
(2.9 -4.94941e-14 0)
(2.9 -2.4856e-14 0)
(2.9 -5.13729e-14 0)
(2.9 4.57072e-14 0)
(2.9 -4.14714e-15 0)
(2.9 -5.05538e-14 0)
(2.9 -3.33392e-16 0)
(2.9 1.00164e-13 0)
(2.9 6.75147e-14 0)
(2.9 -3.40457e-14 0)
(2.9 -7.57633e-14 0)
(2.9 1.57194e-14 0)
(2.9 -8.69703e-14 0)
(2.9 1.30196e-14 0)
(2.9 -1.54451e-14 0)
(2.9 2.89038e-14 0)
(2.9 1.01715e-13 0)
(2.9 2.0891e-14 0)
(2.9 2.81084e-14 0)
(2.9 2.12509e-14 0)
(2.9 2.39381e-14 0)
(2.9 6.60859e-14 0)
(2.9 4.90376e-14 0)
(2.9 -2.05589e-14 0)
(2.9 6.65747e-14 0)
(2.9 1.08726e-13 0)
(2.9 7.33523e-14 0)
(2.9 -2.88829e-14 0)
(2.9 2.52755e-14 0)
(2.9 1.65528e-13 0)
(2.9 9.0476e-14 0)
(2.9 2.99858e-14 0)
(2.9 1.37413e-14 0)
(2.9 1.08931e-14 0)
(2.9 3.02514e-14 0)
(2.9 -5.06772e-14 0)
(2.9 2.87497e-14 0)
(2.9 8.6723e-14 0)
(2.9 1.47661e-13 0)
(2.9 5.88922e-14 0)
(2.9 6.01823e-15 0)
(2.9 -3.57943e-14 0)
(2.9 1.19278e-13 0)
(2.9 4.02777e-14 0)
(2.9 -1.96571e-14 0)
(2.9 5.27618e-14 0)
(2.9 -3.50851e-14 0)
(2.9 -7.1896e-14 0)
(2.9 2.8544e-14 0)
(2.9 -9.99523e-14 0)
(2.9 -6.66569e-14 0)
(2.9 -1.04217e-13 0)
(2.9 -1.8554e-14 0)
(2.9 -9.98895e-14 0)
(2.9 5.04218e-14 0)
(2.9 3.66162e-14 0)
(2.9 -5.40112e-14 0)
(2.9 -1.05121e-13 0)
(2.9 -6.84873e-14 0)
(2.9 -1.79612e-14 0)
(2.9 1.27502e-14 0)
(2.9 -2.21184e-14 0)
(2.9 -8.00765e-14 0)
(2.9 4.21199e-14 0)
(2.9 -7.90502e-14 0)
(2.9 -5.19952e-14 0)
(2.9 2.11762e-14 0)
(2.9 9.03689e-14 0)
(2.9 1.10972e-13 0)
(2.9 -1.7671e-14 0)
(2.9 -1.9729e-13 0)
(2.9 -1.77324e-14 0)
(2.9 -3.96215e-14 0)
(2.9 7.15853e-15 0)
(2.9 -7.08596e-14 0)
(2.9 -6.75295e-17 0)
(2.9 4.91096e-14 0)
(2.9 7.23454e-14 0)
(2.9 5.63098e-14 0)
(2.9 1.38896e-13 0)
(2.9 4.95896e-14 0)
(2.9 2.69918e-14 0)
(2.9 2.43193e-14 0)
(2.9 1.78464e-14 0)
(2.9 4.76982e-14 0)
(2.9 4.67412e-14 0)
(2.9 3.43671e-14 0)
(2.9 -2.87725e-14 0)
(2.9 2.88169e-14 0)
(2.9 6.69272e-14 0)
(2.9 2.95109e-14 0)
(2.9 2.66572e-14 0)
(2.9 2.16098e-14 0)
(2.9 5.00147e-14 0)
(2.9 8.31961e-14 0)
(2.9 2.22583e-14 0)
(2.9 -8.89099e-15 0)
(2.9 5.8839e-14 0)
(2.9 8.98498e-14 0)
(2.9 1.84599e-14 0)
(2.9 4.8709e-14 0)
(2.9 3.19404e-14 0)
(2.9 8.54611e-14 0)
(2.9 2.16956e-14 0)
(2.9 -1.42222e-14 0)
(2.9 4.83793e-14 0)
(2.9 -5.895e-15 0)
(2.9 -3.86938e-14 0)
(2.9 4.43563e-14 0)
(2.9 -2.26881e-14 0)
(2.9 -1.93739e-14 0)
(2.9 -8.61631e-14 0)
(2.9 -1.06201e-14 0)
(2.9 -1.60924e-14 0)
(2.9 -5.12023e-15 0)
(2.9 2.79913e-14 0)
(2.9 1.00202e-14 0)
(2.9 -3.63966e-14 0)
(2.9 -7.58533e-15 0)
(2.9 3.39404e-14 0)
(2.9 3.48173e-14 0)
(2.9 -1.13461e-14 0)
(2.9 1.63251e-14 0)
(2.9 4.23867e-14 0)
(2.9 -1.1731e-14 0)
(2.9 6.82169e-15 0)
(2.9 6.24394e-14 0)
(2.9 6.24688e-14 0)
(2.9 6.50481e-14 0)
(2.9 -2.19974e-14 0)
(2.9 -1.68948e-13 0)
(2.9 -5.85007e-14 0)
(2.9 -2.61873e-14 0)
(2.9 -5.765e-14 0)
(2.9 -1.48726e-13 0)
(2.9 -4.2916e-14 0)
(2.9 -3.23777e-14 0)
(2.9 -1.56732e-14 0)
(2.9 -2.83664e-14 0)
(2.9 5.49235e-14 0)
(2.9 8.52216e-14 0)
(2.9 -3.98859e-15 0)
(2.9 -2.17784e-14 0)
(2.9 2.89585e-15 0)
(2.9 -4.04994e-14 0)
(2.9 -1.66899e-14 0)
(2.9 -3.00993e-14 0)
(2.9 -7.79998e-15 0)
(2.9 5.00611e-15 0)
(2.9 -8.7307e-14 0)
(2.9 3.43298e-14 0)
(2.9 3.95642e-14 0)
(2.9 1.50632e-16 0)
(2.9 3.26507e-14 0)
(2.9 1.18701e-13 0)
(2.9 8.7123e-14 0)
(2.9 2.22916e-14 0)
(2.9 -2.75866e-14 0)
(2.9 -5.37829e-14 0)
(2.9 4.18541e-14 0)
(2.9 7.95369e-14 0)
(2.9 6.90179e-14 0)
(2.9 8.80153e-14 0)
(2.9 6.48777e-17 0)
(2.9 2.96134e-14 0)
(2.9 8.10453e-14 0)
(2.9 6.27867e-14 0)
(2.9 2.36547e-14 0)
(2.9 -1.67523e-14 0)
(2.9 4.79348e-14 0)
(2.9 8.23241e-14 0)
(2.9 7.87591e-15 0)
(2.9 2.74662e-14 0)
(2.9 7.40848e-14 0)
(2.9 -9.49936e-15 0)
(2.9 -3.45295e-14 0)
(2.9 1.83988e-14 0)
(2.9 3.21956e-14 0)
(2.9 2.78487e-14 0)
(2.9 1.62536e-14 0)
(2.9 7.71146e-14 0)
(2.9 5.0609e-14 0)
(2.9 1.09992e-13 0)
(2.9 7.7308e-14 0)
(2.9 9.65595e-14 0)
(2.9 1.12764e-13 0)
(2.9 1.41834e-13 0)
(2.9 9.76815e-14 0)
(2.9 5.7592e-14 0)
(2.9 -7.38013e-14 0)
(2.9 -1.18225e-13 0)
(2.9 -4.99387e-14 0)
(2.9 -3.44977e-15 0)
(2.9 -5.60217e-14 0)
(2.9 -8.72116e-14 0)
(2.9 -9.08424e-14 0)
(2.9 -1.12089e-13 0)
(2.9 -6.53288e-14 0)
(2.9 -8.2479e-14 0)
(2.9 -2.15054e-14 0)
(2.9 -3.17941e-14 0)
(2.9 3.77555e-14 0)
(2.9 2.16597e-14 0)
(2.9 -2.2939e-14 0)
(2.9 -6.71149e-14 0)
(2.9 -3.35451e-14 0)
(2.9 -2.76733e-14 0)
(2.9 2.56228e-14 0)
(2.9 -3.76015e-14 0)
(2.9 -9.4848e-14 0)
(2.9 5.21136e-15 0)
(2.9 7.84363e-14 0)
(2.9 -2.48777e-14 0)
(2.9 -1.24449e-14 0)
(2.9 5.71429e-14 0)
(2.9 3.16832e-14 0)
(2.9 6.02332e-14 0)
(2.9 -5.44793e-14 0)
(2.9 -9.38148e-14 0)
(2.9 2.23673e-15 0)
(2.9 5.21707e-14 0)
(2.9 7.15307e-14 0)
(2.9 7.42737e-14 0)
(2.9 4.27021e-14 0)
(2.9 4.14648e-14 0)
(2.9 2.89394e-14 0)
(2.9 5.66954e-14 0)
(2.9 4.53117e-14 0)
(2.9 -4.67737e-14 0)
(2.9 8.44354e-14 0)
(2.9 1.61842e-13 0)
(2.9 7.87492e-14 0)
(2.9 3.53876e-16 0)
(2.9 7.02536e-14 0)
(2.9 3.52402e-14 0)
(2.9 9.16654e-15 0)
(2.9 5.61008e-14 0)
(2.9 -3.97012e-15 0)
(2.9 9.73836e-14 0)
(2.9 -2.77248e-15 0)
(2.9 1.22294e-13 0)
(2.9 1.43546e-13 0)
(2.9 1.35954e-13 0)
(2.9 1.2172e-13 0)
(2.9 1.27513e-13 0)
(2.9 1.21355e-13 0)
(2.9 1.67619e-13 0)
(2.9 1.52557e-13 0)
(2.9 7.37672e-14 0)
(2.9 -3.34426e-14 0)
(2.9 2.17217e-14 0)
(2.9 1.6851e-15 0)
(2.9 3.69177e-14 0)
(2.9 2.82041e-14 0)
(2.9 -1.32406e-14 0)
(2.9 -9.65704e-14 0)
(2.9 -1.16443e-13 0)
(2.9 -7.57749e-14 0)
(2.9 -3.63016e-14 0)
(2.9 -8.83633e-14 0)
(2.9 -1.23018e-14 0)
(2.9 4.00303e-14 0)
(2.9 5.78262e-15 0)
(2.9 -3.65869e-14 0)
(2.9 -1.21554e-13 0)
(2.9 -2.05799e-14 0)
(2.9 2.78329e-15 0)
(2.9 4.95717e-14 0)
(2.9 1.35239e-14 0)
(2.9 -6.69365e-14 0)
(2.9 -4.78439e-14 0)
(2.9 6.62268e-14 0)
(2.9 3.77095e-14 0)
(2.9 -3.13456e-14 0)
(2.9 -3.09425e-14 0)
(2.9 -4.32777e-14 0)
(2.9 -1.94691e-14 0)
(2.9 -7.53375e-14 0)
(2.9 -1.08393e-13 0)
(2.9 -1.3983e-14 0)
(2.9 2.189e-14 0)
(2.9 4.49217e-14 0)
(2.9 -2.81663e-14 0)
(2.9 6.63941e-15 0)
(2.9 3.05852e-14 0)
(2.9 -7.12229e-14 0)
(2.9 5.62019e-14 0)
(2.9 8.02606e-14 0)
(2.9 1.56082e-14 0)
(2.9 7.87316e-14 0)
(2.9 1.29437e-13 0)
(2.9 4.26388e-14 0)
(2.9 -4.3532e-14 0)
(2.9 2.45782e-14 0)
(2.9 -3.31088e-14 0)
(2.9 4.07553e-14 0)
(2.9 2.12262e-14 0)
(2.9 2.67529e-14 0)
(2.9 5.77122e-14 0)
(2.9 3.12917e-15 0)
(2.9 1.89051e-15 0)
(2.9 9.36017e-14 0)
(2.9 7.91042e-14 0)
(2.9 5.4203e-14 0)
(2.9 5.59028e-14 0)
(2.9 -1.93674e-16 0)
(2.9 2.2757e-14 0)
(2.9 9.97148e-14 0)
(2.9 6.9219e-14 0)
(2.9 7.36458e-14 0)
(2.9 1.2638e-13 0)
(2.9 7.60107e-14 0)
(2.9 9.095e-14 0)
(2.9 7.17451e-14 0)
(2.9 5.6788e-14 0)
(2.9 -6.19297e-14 0)
(2.9 -5.10568e-14 0)
(2.9 -6.28141e-14 0)
(2.9 -3.16975e-14 0)
(2.9 -8.92885e-14 0)
(2.9 1.41394e-14 0)
(2.9 -8.08916e-15 0)
(2.9 -1.37314e-14 0)
(2.9 -9.14196e-14 0)
(2.9 -1.24883e-13 0)
(2.9 6.72583e-15 0)
(2.9 9.0762e-14 0)
(2.9 7.85184e-14 0)
(2.9 -2.34268e-15 0)
(2.9 -4.07612e-14 0)
(2.9 -6.10169e-14 0)
(2.9 6.45654e-14 0)
(2.9 5.4905e-14 0)
(2.9 -3.46026e-14 0)
(2.9 -1.37674e-13 0)
(2.9 -6.53912e-14 0)
(2.9 -6.11218e-14 0)
(2.9 -8.7284e-14 0)
(2.9 -8.58476e-14 0)
(2.9 9.27416e-15 0)
(2.9 -1.76564e-14 0)
(2.9 4.48642e-15 0)
(2.9 -7.12327e-14 0)
(2.9 6.72405e-15 0)
(2.9 4.09973e-14 0)
(2.9 -6.82607e-14 0)
(2.9 1.22948e-14 0)
(2.9 1.3364e-13 0)
(2.9 4.93105e-14 0)
(2.9 4.58858e-14 0)
(2.9 5.09234e-15 0)
(2.9 3.2337e-14 0)
(2.9 -3.13441e-14 0)
(2.9 2.08482e-16 0)
(2.9 -5.0997e-14 0)
(2.9 7.78495e-15 0)
(2.9 1.55347e-14 0)
(2.9 7.65709e-14 0)
(2.9 1.08387e-14 0)
(2.9 4.33691e-15 0)
(2.9 -6.34954e-14 0)
(2.9 4.98114e-15 0)
(2.9 2.68975e-15 0)
(2.9 -6.54966e-14 0)
(2.9 -2.63123e-14 0)
(2.9 -7.74581e-14 0)
(2.9 -8.2872e-14 0)
(2.9 -1.89769e-14 0)
(2.9 -6.33988e-14 0)
(2.9 2.80561e-14 0)
(2.9 1.32253e-13 0)
(2.9 7.70368e-15 0)
(2.9 5.11624e-14 0)
(2.9 4.37859e-14 0)
(2.9 1.00379e-13 0)
(2.9 5.54627e-14 0)
(2.9 3.7079e-14 0)
(2.9 -2.43476e-15 0)
(2.9 1.31209e-14 0)
(2.9 -8.25821e-14 0)
(2.9 -2.77155e-14 0)
(2.9 -7.12605e-14 0)
(2.9 -3.20258e-14 0)
(2.9 -1.06681e-13 0)
(2.9 -7.65511e-14 0)
(2.9 4.5599e-15 0)
(2.9 8.03806e-14 0)
(2.9 5.93081e-15 0)
(2.9 -8.51564e-14 0)
(2.9 -6.64864e-14 0)
(2.9 -3.64085e-14 0)
(2.9 4.45883e-14 0)
(2.9 1.05274e-14 0)
(2.9 -4.29881e-14 0)
(2.9 -1.90411e-13 0)
(2.9 -6.17246e-14 0)
(2.9 -5.60792e-14 0)
(2.9 -4.59522e-14 0)
(2.9 -3.47805e-14 0)
(2.9 4.45444e-14 0)
(2.9 -4.63642e-14 0)
(2.9 -5.40474e-14 0)
(2.9 -4.78922e-14 0)
(2.9 1.73813e-14 0)
(2.9 2.0314e-14 0)
(2.9 -2.79698e-14 0)
(2.9 6.77144e-15 0)
(2.9 7.38974e-14 0)
(2.9 3.00493e-14 0)
(2.9 -1.41352e-14 0)
(2.9 -6.34187e-14 0)
(2.9 5.65667e-16 0)
(2.9 5.84884e-14 0)
(2.9 5.02477e-14 0)
(2.9 -1.43936e-14 0)
(2.9 -3.4007e-14 0)
(2.9 -2.40352e-14 0)
(2.9 6.48862e-14 0)
(2.9 3.76304e-16 0)
(2.9 7.29565e-14 0)
(2.9 -9.91392e-15 0)
(2.9 2.96842e-14 0)
(2.9 -2.29462e-15 0)
(2.9 -1.15699e-13 0)
(2.9 -4.48089e-14 0)
(2.9 -7.31491e-14 0)
(2.9 -1.04075e-13 0)
(2.9 -7.04328e-14 0)
(2.9 -1.52196e-13 0)
(2.9 -8.47444e-14 0)
(2.9 2.0307e-14 0)
(2.9 6.08919e-14 0)
(2.9 4.53144e-14 0)
(2.9 2.47162e-15 0)
(2.9 8.76514e-14 0)
(2.9 9.0192e-14 0)
(2.9 2.5599e-14 0)
(2.9 4.79882e-14 0)
(2.9 -3.80787e-14 0)
(2.9 -4.8756e-14 0)
(2.9 -7.07565e-14 0)
(2.9 -6.90353e-14 0)
(2.9 -2.28618e-14 0)
(2.9 -7.90992e-14 0)
(2.9 -1.06166e-13 0)
(2.9 -6.36535e-14 0)
(2.9 -6.59493e-14 0)
(2.9 -6.85001e-14 0)
(2.9 -4.02538e-14 0)
(2.9 -6.63343e-14 0)
(2.9 -5.91535e-14 0)
(2.9 -3.26236e-14 0)
(2.9 3.99817e-14 0)
(2.9 3.78433e-15 0)
(2.9 -1.27035e-13 0)
(2.9 -1.43076e-13 0)
(2.9 -9.65349e-14 0)
(2.9 -4.40223e-14 0)
(2.9 2.80363e-14 0)
(2.9 4.53377e-14 0)
(2.9 -5.83358e-14 0)
(2.9 -2.30768e-14 0)
(2.9 -2.09089e-14 0)
(2.9 -3.19075e-14 0)
(2.9 -6.16348e-14 0)
(2.9 -8.71087e-14 0)
(2.9 -4.93576e-14 0)
(2.9 -5.68104e-14 0)
(2.9 -3.43084e-14 0)
(2.9 -7.21259e-14 0)
(2.9 -4.44514e-14 0)
(2.9 -7.14682e-15 0)
(2.9 8.23675e-14 0)
(2.9 3.59793e-14 0)
(2.9 4.79978e-15 0)