/*--------------------------------*- C++ -*----------------------------------*\
| =========                 |                                                 |
| \\      /  F ield         | OpenFOAM: The Open Source CFD Toolbox           |
|  \\    /   O peration     | Version:  2412                                  |
|   \\  /    A nd           | Website:  www.openfoam.com                      |
|    \\/     M anipulation  |                                                 |
\*---------------------------------------------------------------------------*/
FoamFile
{
    version     2.0;
    format      ascii;
    arch        "LSB;label=32;scalar=64";
    class       volScalarField;
    location    "0.0488372";
    object      rho;
}
// * * * * * * * * * * * * * * * * * * * * * * * * * * * * * * * * * * * * * //

dimensions      [1 -3 0 0 0 0 0];

internalField   nonuniform List<scalar> 
100
(
0.909758
0.967243
1.00315
1.03596
1.10368
1.08444
0.884798
0.543735
0.516275
0.523022
0.526544
0.522451
0.510818
0.510532
0.513485
0.522893
0.539125
0.545376
0.548657
0.544296
0.53012
0.527596
0.531276
0.541423
0.572402
0.587915
0.592963
0.595066
0.577869
0.552863
0.548699
0.55261
0.557076
0.569298
0.595788
0.609428
0.614654
0.618355
0.617518
0.617282
0.620474
0.623736
0.623569
0.621574
0.624102
0.628557
0.636842
0.64845
0.655416
0.659999
0.656326
0.650751
0.65322
0.659951
0.694244
0.732133
0.742669
0.748318
0.748824
0.725835
0.683543
0.660865
0.655645
0.655521
0.656626
0.657186
0.65737
0.659693
0.664132
0.66954
0.675119
0.681896
0.68801
0.690033
0.687169
0.68192
0.679118
0.677563
0.681763
0.683411
0.685405
0.685633
0.682215
0.673759
0.655287
0.632907
0.608708
0.588478
0.575896
0.568676
0.564785
0.563201
0.562735
0.562706
0.563251
0.563812
0.565198
0.566386
0.567441
0.567898
)
;

boundaryField
{
    sides
    {
        type            calculated;
        value           nonuniform List<scalar> 2(0.567898 0.909758);
    }
    empty
    {
        type            empty;
    }
}


// ************************************************************************* //
