/*--------------------------------*- C++ -*----------------------------------*\
| =========                 |                                                 |
| \\      /  F ield         | OpenFOAM: The Open Source CFD Toolbox           |
|  \\    /   O peration     | Version:  2412                                  |
|   \\  /    A nd           | Website:  www.openfoam.com                      |
|    \\/     M anipulation  |                                                 |
\*---------------------------------------------------------------------------*/
FoamFile
{
    version     2.0;
    format      ascii;
    arch        "LSB;label=32;scalar=64";
    class       volVectorField;
    location    "2.94138e-05";
    object      U;
}
// * * * * * * * * * * * * * * * * * * * * * * * * * * * * * * * * * * * * * //

dimensions      [0 1 -1 0 0 0 0];

internalField   nonuniform List<vector> 
1800
(
(2.9 -1.4148e-14 0)
(2.9 2.19187e-14 0)
(2.9 -8.93159e-15 0)
(2.9 3.0395e-15 0)
(2.9 -1.97713e-15 0)
(2.9 -6.67775e-15 0)
(2.9 -3.00625e-14 0)
(2.9 -1.93926e-15 0)
(2.9 3.01557e-16 0)
(2.9 1.57288e-14 0)
(2.9 1.62334e-15 0)
(2.9 -2.14809e-15 0)
(2.9 8.48182e-16 0)
(2.9 -4.51334e-15 0)
(2.9 4.57121e-15 0)
(2.9 -7.31231e-15 0)
(2.9 1.79633e-14 0)
(2.9 -1.06006e-14 0)
(2.9 -1.33184e-14 0)
(2.9 -7.722e-15 0)
(2.9 -1.22906e-15 0)
(2.9 -2.04852e-15 0)
(2.9 4.4775e-15 0)
(2.9 -9.29154e-15 0)
(2.9 5.45978e-15 0)
(2.9 1.87899e-14 0)
(2.9 -9.61848e-15 0)
(2.9 9.39989e-15 0)
(2.9 -6.48048e-15 0)
(2.9 -2.64856e-15 0)
(2.9 -1.49051e-15 0)
(2.9 -2.38847e-15 0)
(2.9 5.73127e-15 0)
(2.9 5.73464e-15 0)
(2.9 -8.13294e-16 0)
(2.9 1.48582e-15 0)
(2.9 -4.05493e-15 0)
(2.9 -2.43632e-15 0)
(2.9 -4.68358e-15 0)
(2.9 2.66004e-15 0)
(2.9 -4.75231e-15 0)
(2.9 -1.10598e-14 0)
(2.9 -7.33422e-16 0)
(2.9 3.68646e-14 0)
(2.9 -1.18842e-15 0)
(2.9 -1.08123e-15 0)
(2.9 8.07669e-16 0)
(2.9 4.93434e-15 0)
(2.9 -9.67954e-15 0)
(2.9 -1.1368e-14 0)
(2.9 -5.25603e-15 0)
(2.9 -2.17859e-14 0)
(2.9 -4.29325e-15 0)
(2.9 -3.10427e-15 0)
(2.9 -4.97618e-15 0)
(2.9 -6.04517e-15 0)
(2.9 -2.11081e-15 0)
(2.9 -1.70628e-14 0)
(2.9 4.01881e-15 0)
(2.9 -5.44598e-15 0)
(2.9 1.09097e-14 0)
(2.9 1.82751e-14 0)
(2.9 -4.96423e-14 0)
(2.9 2.177e-14 0)
(2.9 -4.33145e-15 0)
(2.9 -2.97417e-14 0)
(2.9 2.29653e-15 0)
(2.9 1.26329e-15 0)
(2.9 4.18141e-15 0)
(2.9 4.77021e-16 0)
(2.9 3.62942e-15 0)
(2.9 -7.80481e-15 0)
(2.9 4.53826e-15 0)
(2.9 -1.81742e-14 0)
(2.9 4.24508e-15 0)
(2.9 6.15041e-15 0)
(2.9 -1.30657e-14 0)
(2.9 -6.61718e-15 0)
(2.9 -1.17366e-14 0)
(2.9 -3.59042e-14 0)
(2.9 -1.07145e-14 0)
(2.9 -1.49293e-14 0)
(2.9 -2.28918e-15 0)
(2.9 -3.5773e-14 0)
(2.9 2.1673e-14 0)
(2.9 -1.10183e-14 0)
(2.9 -5.16837e-15 0)
(2.9 8.88173e-16 0)
(2.9 -2.80022e-14 0)
(2.9 -1.77688e-14 0)
(2.9 -1.18728e-14 0)
(2.9 -1.65274e-14 0)
(2.9 -8.15265e-15 0)
(2.9 -1.24796e-14 0)
(2.9 -4.39351e-15 0)
(2.9 5.37465e-15 0)
(2.9 -2.46251e-14 0)
(2.9 7.36748e-15 0)
(2.9 1.26849e-14 0)
(2.9 9.62835e-15 0)
(2.9 -3.29445e-14 0)
(2.9 -1.14909e-14 0)
(2.9 -5.23642e-15 0)
(2.9 -4.14945e-15 0)
(2.9 -2.71231e-14 0)
(2.9 -1.38686e-14 0)
(2.9 2.52952e-15 0)
(2.9 -2.67494e-14 0)
(2.9 -4.39608e-14 0)
(2.9 -5.62362e-14 0)
(2.9 -3.44695e-14 0)
(2.9 -1.05057e-14 0)
(2.9 -1.8482e-14 0)
(2.9 -1.56418e-14 0)
(2.9 -2.74086e-14 0)
(2.9 -2.19725e-14 0)
(2.9 -7.32809e-15 0)
(2.9 -4.52411e-14 0)
(2.9 1.11181e-14 0)
(2.9 -3.92549e-14 0)
(2.9 -1.63554e-14 0)
(2.9 6.70495e-15 0)
(2.9 1.55255e-14 0)
(2.9 -8.76231e-15 0)
(2.9 3.74845e-14 0)
(2.9 -1.45243e-14 0)
(2.9 -1.68244e-14 0)
(2.9 -1.73398e-14 0)
(2.9 -2.48709e-14 0)
(2.9 -6.29344e-15 0)
(2.9 -9.52568e-15 0)
(2.9 9.92204e-15 0)
(2.9 8.17171e-15 0)
(2.9 -1.16512e-14 0)
(2.9 3.31231e-14 0)
(2.9 3.46898e-14 0)
(2.9 1.82689e-14 0)
(2.9 7.78658e-15 0)
(2.9 1.94985e-14 0)
(2.9 2.29662e-14 0)
(2.9 -1.22962e-14 0)
(2.9 7.67053e-16 0)
(2.9 4.56878e-14 0)
(2.9 4.48896e-14 0)
(2.9 -3.2572e-15 0)
(2.9 2.538e-14 0)
(2.9 1.24633e-14 0)
(2.9 -9.4288e-16 0)
(2.9 3.59104e-14 0)
(2.9 1.52959e-14 0)
(2.9 -2.05933e-14 0)
(2.9 -1.5585e-14 0)
(2.9 -3.94423e-14 0)
(2.9 -1.65363e-14 0)
(2.9 1.00902e-14 0)
(2.9 2.20826e-15 0)
(2.9 -9.11113e-15 0)
(2.9 -1.95678e-14 0)
(2.9 1.65365e-14 0)
(2.9 -1.21034e-14 0)
(2.9 1.80211e-16 0)
(2.9 -6.63304e-15 0)
(2.9 8.71245e-15 0)
(2.9 1.50203e-15 0)
(2.9 3.74315e-14 0)
(2.9 1.48768e-14 0)
(2.9 1.60739e-14 0)
(2.9 -9.1847e-15 0)
(2.9 -2.31444e-14 0)
(2.9 7.15403e-16 0)
(2.9 2.05732e-14 0)
(2.9 8.11629e-15 0)
(2.9 -1.54994e-14 0)
(2.9 -5.61252e-15 0)
(2.9 1.61977e-14 0)
(2.9 1.13154e-14 0)
(2.9 -2.04173e-14 0)
(2.9 -1.30798e-14 0)
(2.9 8.43927e-15 0)
(2.9 2.93235e-14 0)
(2.9 3.19217e-14 0)
(2.9 2.13433e-16 0)
(2.9 -4.4262e-15 0)
(2.9 -1.65692e-14 0)
(2.9 -2.39353e-14 0)
(2.9 4.47808e-15 0)
(2.9 -1.30279e-14 0)
(2.9 -1.22804e-14 0)
(2.9 -7.39983e-15 0)
(2.9 -1.25007e-14 0)
(2.9 5.38956e-15 0)
(2.9 5.06036e-15 0)
(2.9 -8.51143e-17 0)
(2.9 -8.32123e-15 0)
(2.9 -1.28477e-14 0)
(2.9 9.88838e-15 0)
(2.9 1.90703e-14 0)
(2.9 6.66896e-15 0)
(2.9 -5.71029e-15 0)
(2.9 4.51957e-15 0)
(2.9 -7.59697e-15 0)
(2.9 5.87203e-15 0)
(2.9 2.68158e-14 0)
(2.9 1.84372e-14 0)
(2.9 -6.60657e-15 0)
(2.9 1.01439e-14 0)
(2.9 3.24735e-15 0)
(2.9 -8.08301e-16 0)
(2.9 1.67285e-14 0)
(2.9 -1.14424e-15 0)
(2.9 -6.82893e-15 0)
(2.9 -1.29818e-14 0)
(2.9 -1.06553e-14 0)
(2.9 -2.54357e-14 0)
(2.9 3.61291e-15 0)
(2.9 2.33549e-15 0)
(2.9 5.06577e-15 0)
(2.9 2.21108e-15 0)
(2.9 1.68901e-15 0)
(2.9 3.1715e-15 0)
(2.9 5.56291e-15 0)
(2.9 -1.4633e-15 0)
(2.9 -6.11364e-15 0)
(2.9 4.671e-15 0)
(2.9 2.03418e-14 0)
(2.9 7.92076e-15 0)
(2.9 -1.15636e-14 0)
(2.9 -1.5733e-14 0)
(2.9 -2.51915e-17 0)
(2.9 5.79465e-15 0)
(2.9 5.36556e-15 0)
(2.9 1.15066e-16 0)
(2.9 -2.89261e-15 0)
(2.9 -1.15033e-14 0)
(2.9 -3.04628e-15 0)
(2.9 1.80512e-15 0)
(2.9 -1.03488e-14 0)
(2.9 -1.00614e-14 0)
(2.9 -1.92641e-14 0)
(2.9 1.88855e-14 0)
(2.9 1.66197e-15 0)
(2.9 -2.46257e-14 0)
(2.9 -5.71557e-14 0)
(2.9 -6.25601e-14 0)
(2.9 8.64925e-15 0)
(2.9 4.68945e-14 0)
(2.9 6.6539e-15 0)
(2.9 -3.39815e-14 0)
(2.9 -7.70624e-15 0)
(2.9 -5.84913e-15 0)
(2.9 1.55685e-14 0)
(2.9 3.6789e-15 0)
(2.9 -8.21995e-15 0)
(2.9 -2.43064e-14 0)
(2.9 -3.39474e-14 0)
(2.9 -1.12973e-14 0)
(2.9 1.22447e-14 0)
(2.9 -3.00835e-15 0)
(2.9 -2.87545e-14 0)
(2.9 -3.58983e-14 0)
(2.9 -2.29495e-14 0)
(2.9 -4.92013e-15 0)
(2.9 7.92612e-15 0)
(2.9 -1.51799e-14 0)
(2.9 -3.7044e-14 0)
(2.9 1.37931e-14 0)
(2.9 -2.99662e-14 0)
(2.9 -1.17859e-14 0)
(2.9 -2.15219e-14 0)
(2.9 -2.18708e-14 0)
(2.9 -5.93505e-15 0)
(2.9 -3.67876e-14 0)
(2.9 1.91218e-15 0)
(2.9 -4.46555e-14 0)
(2.9 8.87385e-15 0)
(2.9 8.27275e-15 0)
(2.9 1.0234e-14 0)
(2.9 1.41414e-14 0)
(2.9 -1.33865e-14 0)
(2.9 -5.75852e-16 0)
(2.9 2.57742e-14 0)
(2.9 -8.58547e-16 0)
(2.9 -6.41043e-14 0)
(2.9 3.68709e-15 0)
(2.9 -8.85456e-15 0)
(2.9 2.49052e-16 0)
(2.9 -1.6357e-14 0)
(2.9 -3.40405e-14 0)
(2.9 2.40323e-14 0)
(2.9 1.44697e-14 0)
(2.9 -4.85223e-16 0)
(2.9 -6.60156e-15 0)
(2.9 8.15171e-17 0)
(2.9 -4.59377e-14 0)
(2.9 -7.81442e-14 0)
(2.9 -1.28297e-14 0)
(2.9 -2.03929e-14 0)
(2.9 2.43085e-14 0)
(2.9 -4.31089e-14 0)
(2.9 9.41651e-15 0)
(2.9 1.40059e-14 0)
(2.9 2.98998e-14 0)
(2.9 2.03696e-14 0)
(2.9 1.19197e-14 0)
(2.9 4.12343e-14 0)
(2.9 -1.71121e-15 0)
(2.9 -8.40874e-15 0)
(2.9 4.60758e-15 0)
(2.9 1.5399e-14 0)
(2.9 3.86331e-14 0)
(2.9 -3.06722e-14 0)
(2.9 -2.35344e-14 0)
(2.9 4.26401e-16 0)
(2.9 -1.29597e-14 0)
(2.9 1.87597e-14 0)
(2.9 -3.62016e-15 0)
(2.9 -1.01318e-14 0)
(2.9 -2.02798e-14 0)
(2.9 -6.89567e-15 0)
(2.9 7.21699e-15 0)
(2.9 -1.56404e-14 0)
(2.9 -2.65051e-14 0)
(2.9 -5.51136e-15 0)
(2.9 1.80728e-14 0)
(2.9 -6.40258e-15 0)
(2.9 -2.87444e-15 0)
(2.9 3.67698e-14 0)
(2.9 1.3897e-15 0)
(2.9 -9.80097e-15 0)
(2.9 1.09962e-14 0)
(2.9 -3.81243e-15 0)
(2.9 4.98746e-14 0)
(2.9 1.71778e-14 0)
(2.9 1.14869e-15 0)
(2.9 -1.44398e-15 0)
(2.9 -1.96141e-14 0)
(2.9 -1.6999e-14 0)
(2.9 6.10352e-15 0)
(2.9 -1.10304e-14 0)
(2.9 -4.00826e-15 0)
(2.9 1.29006e-14 0)
(2.9 5.51852e-15 0)
(2.9 2.57623e-14 0)
(2.9 -5.38747e-15 0)
(2.9 -7.16635e-15 0)
(2.9 -7.8813e-15 0)
(2.9 2.43995e-14 0)
(2.9 1.05252e-14 0)
(2.9 1.05057e-14 0)
(2.9 2.73911e-14 0)
(2.9 -1.68606e-14 0)
(2.9 2.28436e-14 0)
(2.9 -6.46112e-15 0)
(2.9 2.43848e-14 0)
(2.9 -2.81326e-14 0)
(2.9 -1.00477e-14 0)
(2.9 -5.28616e-15 0)
(2.9 4.58286e-14 0)
(2.9 5.01148e-14 0)
(2.9 -2.40019e-14 0)
(2.9 -1.20196e-15 0)
(2.9 7.69024e-15 0)
(2.9 3.69294e-14 0)
(2.9 -3.31476e-15 0)
(2.9 -5.66022e-15 0)
(2.9 -4.35909e-15 0)
(2.9 8.11331e-15 0)
(2.9 5.06909e-15 0)
(2.9 2.48959e-14 0)
(2.9 -2.49071e-15 0)
(2.9 3.22577e-15 0)
(2.9 -1.14145e-15 0)
(2.9 -1.39563e-14 0)
(2.9 -2.638e-14 0)
(2.9 -2.13218e-15 0)
(2.9 -3.02742e-15 0)
(2.9 -2.25904e-14 0)
(2.9 -2.7905e-14 0)
(2.9 2.85408e-14 0)
(2.9 4.59896e-14 0)
(2.9 2.29171e-14 0)
(2.9 -2.92045e-14 0)
(2.9 -9.25489e-15 0)
(2.9 2.70376e-15 0)
(2.9 6.41597e-15 0)
(2.9 -5.96195e-14 0)
(2.9 1.23516e-14 0)
(2.9 2.05934e-14 0)
(2.9 -1.69462e-15 0)
(2.9 -3.61677e-15 0)
(2.9 -8.57092e-16 0)
(2.9 2.67518e-14 0)
(2.9 7.60633e-15 0)
(2.9 2.72731e-15 0)
(2.9 -6.10413e-14 0)
(2.9 -1.25295e-14 0)
(2.9 -5.27269e-15 0)
(2.9 -6.23563e-15 0)
(2.9 -3.93368e-15 0)
(2.9 1.34907e-14 0)
(2.9 -9.05863e-15 0)
(2.9 -3.60526e-15 0)
(2.9 2.76654e-14 0)
(2.9 2.03877e-14 0)
(2.9 -4.22305e-15 0)
(2.9 -6.05465e-15 0)
(2.9 1.78399e-14 0)
(2.9 -1.64062e-16 0)
(2.9 -3.84382e-14 0)
(2.9 -1.30485e-14 0)
(2.9 -6.41402e-15 0)
(2.9 1.3639e-14 0)
(2.9 -1.65073e-14 0)
(2.9 9.70812e-15 0)
(2.9 3.86224e-15 0)
(2.9 -1.97546e-14 0)
(2.9 -2.6562e-15 0)
(2.9 -7.73185e-15 0)
(2.9 -1.52954e-14 0)
(2.9 -1.35398e-14 0)
(2.9 1.93404e-15 0)
(2.9 2.83476e-15 0)
(2.9 -2.74651e-15 0)
(2.9 -2.50821e-14 0)
(2.9 -7.26067e-15 0)
(2.9 -1.44998e-14 0)
(2.9 5.06269e-14 0)
(2.9 4.6817e-15 0)
(2.9 3.99907e-15 0)
(2.9 -1.10943e-15 0)
(2.9 5.02677e-14 0)
(2.9 2.37701e-14 0)
(2.9 -8.87936e-16 0)
(2.9 -2.34352e-14 0)
(2.9 -1.9113e-15 0)
(2.9 -2.89282e-15 0)
(2.9 -1.83987e-15 0)
(2.9 -3.96032e-15 0)
(2.9 5.16233e-15 0)
(2.9 -5.21879e-15 0)
(2.9 5.81616e-15 0)
(2.9 -5.23288e-16 0)
(2.9 2.21372e-15 0)
(2.9 2.99845e-15 0)
(2.9 4.66657e-14 0)
(2.9 -9.14055e-15 0)
(2.9 1.18156e-14 0)
(2.9 -5.92481e-15 0)
(2.9 -5.17183e-14 0)
(2.9 -9.86976e-16 0)
(2.9 -5.7789e-16 0)
(2.9 -3.22358e-15 0)
(2.9 1.40913e-14 0)
(2.9 2.56239e-14 0)
(2.9 -1.29955e-14 0)
(2.9 -2.03673e-14 0)
(2.9 1.16597e-15 0)
(2.9 -2.49655e-16 0)
(2.9 3.39026e-16 0)
(2.9 -3.94896e-14 0)
(2.9 -1.62958e-14 0)
(2.9 -1.72094e-14 0)
(2.9 3.87586e-15 0)
(2.9 -7.3828e-15 0)
(2.9 -9.50927e-15 0)
(2.9 -2.20275e-14 0)
(2.9 -4.4785e-14 0)
(2.9 -9.01836e-15 0)
(2.9 -1.50338e-14 0)
(2.9 -1.44629e-14 0)
(2.9 1.79239e-14 0)
(2.9 1.36087e-15 0)
(2.9 -1.28028e-14 0)
(2.9 2.74643e-14 0)
(2.9 5.76261e-14 0)
(2.9 -4.93902e-16 0)
(2.9 -4.817e-15 0)
(2.9 6.06897e-16 0)
(2.9 -4.26268e-14 0)
(2.9 -3.17299e-14 0)
(2.9 1.22806e-14 0)
(2.9 4.06398e-15 0)
(2.9 -1.83634e-14 0)
(2.9 -2.42815e-15 0)
(2.9 8.68266e-15 0)
(2.9 -2.41723e-14 0)
(2.9 1.68596e-14 0)
(2.9 5.69994e-15 0)
(2.9 -3.72967e-15 0)
(2.9 1.33968e-14 0)
(2.9 1.60295e-14 0)
(2.9 2.72247e-14 0)
(2.9 1.39247e-14 0)
(2.9 2.64565e-14 0)
(2.9 -1.18191e-15 0)
(2.9 -1.17974e-14 0)
(2.9 2.07522e-14 0)
(2.9 5.63637e-15 0)
(2.9 -9.5039e-16 0)
(2.9 -1.82511e-14 0)
(2.9 5.83782e-15 0)
(2.9 2.76533e-14 0)
(2.9 -1.89918e-15 0)
(2.9 -3.37434e-16 0)
(2.9 2.51569e-14 0)
(2.9 9.59702e-15 0)
(2.9 -4.2147e-15 0)
(2.9 -3.74405e-15 0)
(2.9 1.13128e-14 0)
(2.9 1.57813e-14 0)
(2.9 2.55173e-15 0)
(2.9 7.95218e-15 0)
(2.9 3.54965e-15 0)
(2.9 9.51601e-15 0)
(2.9 4.72181e-15 0)
(2.9 3.04646e-14 0)
(2.9 2.03357e-14 0)
(2.9 1.16093e-14 0)
(2.9 1.98838e-14 0)
(2.9 -3.85695e-15 0)
(2.9 1.10554e-14 0)
(2.9 4.73257e-15 0)
(2.9 6.29355e-15 0)
(2.9 -2.23834e-14 0)
(2.9 -1.63612e-16 0)
(2.9 -5.30486e-14 0)
(2.9 -3.48728e-14 0)
(2.9 4.84988e-14 0)
(2.9 5.22257e-14 0)
(2.9 8.50727e-15 0)
(2.9 4.08501e-15 0)
(2.9 -1.80453e-15 0)
(2.9 9.55933e-15 0)
(2.9 3.20355e-15 0)
(2.9 9.67498e-16 0)
(2.9 9.24852e-15 0)
(2.9 3.10078e-14 0)
(2.9 1.66734e-14 0)
(2.9 -1.46086e-14 0)
(2.9 1.77546e-14 0)
(2.9 -1.8014e-14 0)
(2.9 -9.19943e-15 0)
(2.9 -6.32912e-16 0)
(2.9 1.0539e-14 0)
(2.9 -2.14817e-15 0)
(2.9 5.52691e-15 0)
(2.9 3.3316e-15 0)
(2.9 3.0086e-14 0)
(2.9 2.33861e-14 0)
(2.9 1.57482e-14 0)
(2.9 1.51167e-14 0)
(2.9 1.51058e-16 0)
(2.9 5.4433e-15 0)
(2.9 3.21323e-14 0)
(2.9 -7.19259e-15 0)
(2.9 -2.73428e-14 0)
(2.9 -1.25663e-14 0)
(2.9 2.81969e-14 0)
(2.9 -4.43554e-15 0)
(2.9 -2.5621e-14 0)
(2.9 2.04566e-14 0)
(2.9 2.22636e-14 0)
(2.9 -1.53272e-14 0)
(2.9 -8.41629e-15 0)
(2.9 6.6642e-15 0)
(2.9 2.2495e-15 0)
(2.9 -2.89364e-15 0)
(2.9 -5.78156e-15 0)
(2.9 3.95358e-15 0)
(2.9 1.37016e-14 0)
(2.9 9.88962e-15 0)
(2.9 -1.0932e-14 0)
(2.9 5.11564e-17 0)
(2.9 1.75504e-14 0)
(2.9 -2.02228e-14 0)
(2.9 4.82534e-14 0)
(2.9 3.29526e-14 0)
(2.9 -3.07695e-15 0)
(2.9 3.44702e-14 0)
(2.9 9.31459e-15 0)
(2.9 1.46213e-14 0)
(2.9 -6.84714e-15 0)
(2.9 -3.03896e-14 0)
(2.9 -4.78637e-14 0)
(2.9 -2.08182e-14 0)
(2.9 -2.18166e-15 0)
(2.9 1.66089e-14 0)
(2.9 -1.31601e-16 0)
(2.9 8.82669e-15 0)
(2.9 -2.89761e-16 0)
(2.9 3.40438e-15 0)
(2.9 -1.18195e-14 0)
(2.9 1.37007e-14 0)
(2.9 -1.5122e-14 0)
(2.9 -6.97951e-15 0)
(2.9 -1.51901e-14 0)
(2.9 2.30638e-14 0)
(2.9 -6.20249e-15 0)
(2.9 -2.72139e-14 0)
(2.9 7.66764e-15 0)
(2.9 -2.83387e-14 0)
(2.9 -3.88118e-14 0)
(2.9 6.61106e-15 0)
(2.9 4.85629e-14 0)
(2.9 5.18441e-15 0)
(2.9 4.6906e-14 0)
(2.9 -1.12845e-14 0)
(2.9 1.29534e-14 0)
(2.9 -1.68486e-14 0)
(2.9 -9.70201e-17 0)
(2.9 -2.30309e-14 0)
(2.9 -2.89131e-14 0)
(2.9 -4.86591e-14 0)
(2.9 4.14431e-14 0)
(2.9 2.25247e-14 0)
(2.9 -3.41422e-14 0)
(2.9 3.24593e-15 0)
(2.9 2.4829e-14 0)
(2.9 6.26827e-15 0)
(2.9 -8.08393e-16 0)
(2.9 1.94602e-14 0)
(2.9 -2.33209e-15 0)
(2.9 -6.64914e-14 0)
(2.9 -3.57484e-14 0)
(2.9 1.19101e-14 0)
(2.9 4.10855e-14 0)
(2.9 2.0271e-14 0)
(2.9 -2.43292e-14 0)
(2.9 5.90888e-15 0)
(2.9 -8.98083e-15 0)
(2.9 -3.26271e-14 0)
(2.9 -4.86367e-14 0)
(2.9 -7.73448e-15 0)
(2.9 3.56299e-15 0)
(2.9 4.42976e-14 0)
(2.9 9.23627e-15 0)
(2.9 -1.06611e-14 0)
(2.9 -3.93696e-14 0)
(2.9 -2.3863e-14 0)
(2.9 4.32189e-15 0)
(2.9 1.89839e-15 0)
(2.9 -3.91356e-14 0)
(2.9 -4.0572e-14 0)
(2.9 -5.8998e-14 0)
(2.9 -3.06559e-14 0)
(2.9 4.07153e-14 0)
(2.9 6.8016e-15 0)
(2.9 -4.7713e-16 0)
(2.9 3.75794e-14 0)
(2.9 2.45876e-14 0)
(2.9 1.0833e-14 0)
(2.9 -4.83595e-15 0)
(2.9 2.99544e-16 0)
(2.9 -3.16793e-14 0)
(2.9 2.77705e-14 0)
(2.9 5.68743e-14 0)
(2.9 4.75169e-15 0)
(2.9 1.67777e-14 0)
(2.9 2.28118e-14 0)
(2.9 7.69175e-15 0)
(2.9 -1.12808e-14 0)
(2.9 2.34708e-14 0)
(2.9 1.78699e-14 0)
(2.9 -2.37594e-15 0)
(2.9 3.65873e-15 0)
(2.9 6.51514e-17 0)
(2.9 6.43471e-15 0)
(2.9 -3.53451e-14 0)
(2.9 1.14445e-14 0)
(2.9 -2.14504e-15 0)
(2.9 9.04284e-15 0)
(2.9 -8.56906e-15 0)
(2.9 2.54983e-14 0)
(2.9 -1.20565e-15 0)
(2.9 3.77218e-15 0)
(2.9 2.99026e-14 0)
(2.9 4.39768e-14 0)
(2.9 1.41979e-14 0)
(2.9 5.07436e-15 0)
(2.9 1.47295e-14 0)
(2.9 -1.02873e-14 0)
(2.9 -1.81565e-14 0)
(2.9 -2.54088e-14 0)
(2.9 1.25289e-14 0)
(2.9 3.39222e-15 0)
(2.9 -2.99516e-15 0)
(2.9 -8.50948e-15 0)
(2.9 -9.85699e-15 0)
(2.9 1.77065e-14 0)
(2.9 8.60656e-15 0)
(2.9 -2.24721e-14 0)
(2.9 -4.1625e-14 0)
(2.9 -2.46568e-14 0)
(2.9 6.73378e-15 0)
(2.9 6.51576e-15 0)
(2.9 -1.26044e-14 0)
(2.9 -2.07121e-14 0)
(2.9 -2.59088e-14 0)
(2.9 -8.21917e-15 0)
(2.9 1.23623e-14 0)
(2.9 -8.90348e-15 0)
(2.9 3.95803e-14 0)
(2.9 -5.53044e-15 0)
(2.9 9.96595e-15 0)
(2.9 3.19296e-14 0)
(2.9 1.76873e-14 0)
(2.9 5.96287e-15 0)
(2.9 1.13195e-14 0)
(2.9 -1.09629e-15 0)
(2.9 2.12415e-14 0)
(2.9 1.23667e-14 0)
(2.9 -2.45987e-14 0)
(2.9 -9.65391e-15 0)
(2.9 -9.77384e-15 0)
(2.9 2.31227e-14 0)
(2.9 3.97956e-15 0)
(2.9 4.20679e-15 0)
(2.9 2.24517e-15 0)
(2.9 8.22893e-14 0)
(2.9 -4.21731e-15 0)
(2.9 7.45507e-15 0)
(2.9 1.32792e-14 0)
(2.9 1.39885e-14 0)
(2.9 -1.46324e-14 0)
(2.9 -1.25143e-14 0)
(2.9 1.57206e-16 0)
(2.9 -5.79425e-15 0)
(2.9 -2.37186e-14 0)
(2.9 4.9607e-15 0)
(2.9 -2.26146e-14 0)
(2.9 1.17398e-14 0)
(2.9 -2.5287e-14 0)
(2.9 8.43721e-15 0)
(2.9 2.35795e-14 0)
(2.9 -1.14346e-14 0)
(2.9 6.67895e-15 0)
(2.9 1.19028e-14 0)
(2.9 1.67178e-15 0)
(2.9 9.84512e-15 0)
(2.9 1.34967e-14 0)
(2.9 -1.19503e-14 0)
(2.9 5.13638e-15 0)
(2.9 1.0555e-14 0)
(2.9 -5.0394e-15 0)
(2.9 -1.99626e-14 0)
(2.9 -5.56934e-16 0)
(2.9 -3.21998e-14 0)
(2.9 -2.72553e-14 0)
(2.9 -1.01418e-14 0)
(2.9 -1.10542e-14 0)
(2.9 -6.61883e-15 0)
(2.9 3.51089e-15 0)
(2.9 7.75006e-15 0)
(2.9 1.04098e-15 0)
(2.9 -6.57878e-15 0)
(2.9 -1.48633e-14 0)
(2.9 -3.16806e-15 0)
(2.9 3.0722e-14 0)
(2.9 -9.21356e-15 0)
(2.9 8.50779e-16 0)
(2.9 -1.0232e-14 0)
(2.9 1.45721e-14 0)
(2.9 1.45174e-14 0)
(2.9 4.73317e-14 0)
(2.9 -1.27344e-14 0)
(2.9 -6.21604e-15 0)
(2.9 -4.56568e-15 0)
(2.9 3.19645e-15 0)
(2.9 -7.13563e-15 0)
(2.9 7.67867e-15 0)
(2.9 -1.45563e-14 0)
(2.9 -5.99737e-15 0)
(2.9 1.22732e-14 0)
(2.9 2.04313e-15 0)
(2.9 -2.73438e-14 0)
(2.9 7.38761e-15 0)
(2.9 9.63229e-15 0)
(2.9 -1.77407e-14 0)
(2.9 -6.31713e-15 0)
(2.9 -4.46568e-14 0)
(2.9 -4.98839e-16 0)
(2.9 -1.82189e-14 0)
(2.9 4.76191e-14 0)
(2.9 -2.70994e-14 0)
(2.9 -5.55509e-14 0)
(2.9 -4.4244e-16 0)
(2.9 -3.38981e-14 0)
(2.9 -2.42164e-15 0)
(2.9 -2.60552e-14 0)
(2.9 -3.69187e-15 0)
(2.9 -1.12535e-15 0)
(2.9 3.61577e-14 0)
(2.9 1.63266e-14 0)
(2.9 2.66137e-14 0)
(2.9 -1.29058e-14 0)
(2.9 -1.0995e-15 0)
(2.9 -4.27392e-14 0)
(2.9 -5.86947e-15 0)
(2.9 -1.49271e-14 0)
(2.9 3.08237e-14 0)
(2.9 2.31538e-15 0)
(2.9 4.58603e-14 0)
(2.9 7.71961e-14 0)
(2.9 1.6835e-14 0)
(2.9 -5.07562e-14 0)
(2.9 -2.17288e-14 0)
(2.9 3.93177e-15 0)
(2.9 5.15444e-14 0)
(2.9 4.45291e-14 0)
(2.9 1.98388e-15 0)
(2.9 -8.89877e-15 0)
(2.9 4.36778e-14 0)
(2.9 1.34074e-15 0)
(2.9 -8.71178e-15 0)
(2.9 6.45293e-15 0)
(2.9 -4.1443e-15 0)
(2.9 -4.88213e-15 0)
(2.9 3.41362e-14 0)
(2.9 -3.11926e-14 0)
(2.9 -2.53355e-14 0)
(2.9 3.76457e-15 0)
(2.9 2.8712e-14 0)
(2.9 3.53699e-14 0)
(2.9 1.00632e-13 0)
(2.9 2.83233e-14 0)
(2.9 9.2834e-15 0)
(2.9 5.04028e-15 0)
(2.9 6.23588e-15 0)
(2.9 -9.89035e-15 0)
(2.9 -7.17908e-15 0)
(2.9 -5.2259e-14 0)
(2.9 1.55159e-15 0)
(2.9 5.87923e-14 0)
(2.9 2.71346e-14 0)
(2.9 -4.84863e-14 0)
(2.9 2.50466e-14 0)
(2.9 -1.05234e-14 0)
(2.9 -4.35125e-14 0)
(2.9 -4.17136e-14 0)
(2.9 -2.52331e-14 0)
(2.9 -1.44493e-14 0)
(2.9 -2.80854e-14 0)
(2.9 3.76554e-15 0)
(2.9 8.69586e-16 0)
(2.9 -3.51118e-15 0)
(2.9 1.69832e-14 0)
(2.9 3.63099e-14 0)
(2.9 2.55798e-14 0)
(2.9 1.11984e-14 0)
(2.9 1.3289e-14 0)
(2.9 -4.24266e-15 0)
(2.9 7.59782e-15 0)
(2.9 -4.72907e-16 0)
(2.9 -5.16048e-15 0)
(2.9 -4.83532e-15 0)
(2.9 -2.08422e-15 0)
(2.9 -3.02348e-14 0)
(2.9 -1.44232e-14 0)
(2.9 -5.11211e-15 0)
(2.9 1.65294e-14 0)
(2.9 9.39854e-16 0)
(2.9 4.5768e-15 0)
(2.9 1.49459e-14 0)
(2.9 1.16766e-14 0)
(2.9 -2.62488e-15 0)
(2.9 8.45595e-15 0)
(2.9 -1.45461e-14 0)
(2.9 -7.65464e-15 0)
(2.9 -1.17769e-14 0)
(2.9 -1.3585e-14 0)
(2.9 3.06007e-15 0)
(2.9 9.40743e-15 0)
(2.9 -1.51416e-14 0)
(2.9 1.02724e-14 0)
(2.9 2.41536e-14 0)
(2.9 -6.98506e-15 0)
(2.9 -1.68068e-15 0)
(2.9 -1.66382e-15 0)
(2.9 -3.51229e-15 0)
(2.9 -6.90792e-15 0)
(2.9 -1.67028e-16 0)
(2.9 3.38581e-15 0)
(2.9 1.28057e-14 0)
(2.9 3.12604e-14 0)
(2.9 7.74847e-15 0)
(2.9 2.25492e-14 0)
(2.9 1.92608e-14 0)
(2.9 7.37733e-16 0)
(2.9 -1.11771e-14 0)
(2.9 -3.15938e-15 0)
(2.9 -7.64476e-15 0)
(2.9 3.3363e-15 0)
(2.9 1.21046e-14 0)
(2.9 1.1162e-14 0)
(2.9 2.89624e-15 0)
(2.9 1.97718e-14 0)
(2.9 -1.01475e-14 0)
(2.9 -5.99149e-15 0)
(2.9 3.03258e-14 0)
(2.9 -1.63945e-15 0)
(2.9 -2.62696e-15 0)
(2.9 -2.36221e-15 0)
(2.9 -2.10875e-14 0)
(2.9 1.91327e-14 0)
(2.9 3.5498e-14 0)
(2.9 -1.15009e-15 0)
(2.9 2.5873e-14 0)
(2.9 3.37604e-14 0)
(2.9 1.93386e-14 0)
(2.9 1.27529e-14 0)
(2.9 9.71595e-15 0)
(2.9 -1.81576e-16 0)
(2.9 -1.63804e-14 0)
(2.9 -1.72706e-14 0)
(2.9 -9.1082e-15 0)
(2.9 -1.539e-14 0)
(2.9 -5.8932e-15 0)
(2.9 -5.36908e-15 0)
(2.9 -1.07603e-14 0)
(2.9 8.52303e-16 0)
(2.9 -5.58156e-15 0)
(2.9 -3.15826e-14 0)
(2.9 -1.34878e-14 0)
(2.9 4.62447e-15 0)
(2.9 1.35901e-14 0)
(2.9 8.49234e-15 0)
(2.9 -4.86084e-14 0)
(2.9 -3.22332e-14 0)
(2.9 -2.82822e-14 0)
(2.9 -1.52971e-14 0)
(2.9 2.02098e-14 0)
(2.9 -2.14105e-14 0)
(2.9 -2.45949e-14 0)
(2.9 1.04946e-14 0)
(2.9 1.3315e-15 0)
(2.9 -2.91367e-14 0)
(2.9 -5.51594e-15 0)
(2.9 -1.46302e-14 0)
(2.9 1.38251e-14 0)
(2.9 -1.65536e-15 0)
(2.9 -1.62969e-15 0)
(2.9 -1.36129e-14 0)
(2.9 1.82455e-14 0)
(2.9 -6.23528e-15 0)
(2.9 -3.04241e-14 0)
(2.9 -1.40431e-14 0)
(2.9 2.99737e-14 0)
(2.9 1.15262e-14 0)
(2.9 -1.11854e-14 0)
(2.9 4.7054e-15 0)
(2.9 2.23881e-14 0)
(2.9 1.08989e-14 0)
(2.9 -3.70444e-14 0)
(2.9 -4.6431e-16 0)
(2.9 4.05678e-14 0)
(2.9 -9.27518e-15 0)
(2.9 -1.20848e-14 0)
(2.9 8.60061e-15 0)
(2.9 7.08562e-15 0)
(2.9 2.08335e-14 0)
(2.9 -3.31212e-14 0)
(2.9 2.41166e-14 0)
(2.9 -8.90567e-16 0)
(2.9 3.1964e-15 0)
(2.9 6.11676e-15 0)
(2.9 -6.21693e-14 0)
(2.9 -2.54779e-14 0)
(2.9 3.95268e-15 0)
(2.9 -3.66062e-14 0)
(2.9 -1.84653e-14 0)
(2.9 1.81634e-15 0)
(2.9 2.36947e-14 0)
(2.9 2.83439e-14 0)
(2.9 1.00324e-14 0)
(2.9 -2.72801e-14 0)
(2.9 4.34658e-14 0)
(2.9 3.40883e-14 0)
(2.9 -3.71751e-14 0)
(2.9 -4.74248e-14 0)
(2.9 -5.45191e-14 0)
(2.9 -1.92257e-14 0)
(2.9 -4.55867e-14 0)
(2.9 3.29441e-14 0)
(2.9 5.657e-15 0)
(2.9 4.3373e-14 0)
(2.9 -1.24421e-14 0)
(2.9 -2.00272e-14 0)
(2.9 4.09383e-14 0)
(2.9 1.94058e-14 0)
(2.9 -3.68947e-15 0)
(2.9 2.66607e-14 0)
(2.9 4.99487e-14 0)
(2.9 3.78411e-14 0)
(2.9 -1.70984e-15 0)
(2.9 1.73604e-14 0)
(2.9 3.49255e-15 0)
(2.9 -8.70078e-15 0)
(2.9 -1.14408e-14 0)
(2.9 -5.96348e-15 0)
(2.9 -2.1921e-15 0)
(2.9 1.43686e-14 0)
(2.9 -1.40487e-14 0)
(2.9 1.05985e-14 0)
(2.9 -2.94537e-14 0)
(2.9 4.36006e-14 0)
(2.9 -1.31839e-14 0)
(2.9 1.24766e-14 0)
(2.9 -2.35968e-15 0)
(2.9 -6.13733e-14 0)
(2.9 -4.00995e-14 0)
(2.9 2.02824e-15 0)
(2.9 -2.15222e-15 0)
(2.9 -2.83699e-14 0)
(2.9 1.17528e-14 0)
(2.9 3.25657e-15 0)
(2.9 -5.71993e-14 0)
(2.9 -9.86204e-15 0)
(2.9 -2.05002e-15 0)
(2.9 -2.03898e-14 0)
(2.9 -1.60358e-14 0)
(2.9 -6.26883e-15 0)
(2.9 1.79987e-14 0)
(2.9 5.0794e-15 0)
(2.9 2.34615e-14 0)
(2.9 4.32464e-15 0)
(2.9 -1.33257e-14 0)
(2.9 -1.30561e-14 0)
(2.9 -3.56261e-16 0)
(2.9 8.60934e-15 0)
(2.9 -7.34004e-15 0)
(2.9 -3.34901e-17 0)
(2.9 -2.44935e-15 0)
(2.9 1.11757e-14 0)
(2.9 1.18241e-14 0)
(2.9 2.75778e-14 0)
(2.9 5.319e-15 0)
(2.9 5.60991e-15 0)
(2.9 2.04381e-14 0)
(2.9 2.98974e-14 0)
(2.9 -1.26664e-14 0)
(2.9 -3.81009e-15 0)
(2.9 -3.40314e-15 0)
(2.9 3.47026e-15 0)
(2.9 9.74119e-15 0)
(2.9 8.55467e-15 0)
(2.9 -7.64091e-15 0)
(2.9 2.52812e-15 0)
(2.9 8.84591e-15 0)
(2.9 1.0921e-14 0)
(2.9 1.45601e-14 0)
(2.9 6.43336e-15 0)
(2.9 7.23991e-15 0)
(2.9 6.15811e-15 0)
(2.9 -2.89146e-16 0)
(2.9 2.44554e-15 0)
(2.9 -3.66815e-17 0)
(2.9 -3.14542e-15 0)
(2.9 -4.58904e-15 0)
(2.9 -2.08325e-14 0)
(2.9 -3.39683e-15 0)
(2.9 5.07492e-15 0)
(2.9 9.89404e-15 0)
(2.9 -5.34781e-15 0)
(2.9 -2.22832e-14 0)
(2.9 5.19369e-15 0)
(2.9 4.55382e-15 0)
(2.9 -2.05742e-14 0)
(2.9 -9.46029e-15 0)
(2.9 -1.22491e-14 0)
(2.9 -1.2597e-14 0)
(2.9 -5.57826e-15 0)
(2.9 -2.65198e-14 0)
(2.9 1.6669e-14 0)
(2.9 1.74202e-14 0)
(2.9 1.1336e-14 0)
(2.9 -1.23966e-14 0)
(2.9 -8.50077e-15 0)
(2.9 5.55424e-15 0)
(2.9 -2.07916e-14 0)
(2.9 1.61265e-14 0)
(2.9 2.02936e-14 0)
(2.9 8.69739e-15 0)
(2.9 -1.41375e-14 0)
(2.9 5.52698e-16 0)
(2.9 1.21768e-14 0)
(2.9 2.96098e-15 0)
(2.9 5.97267e-16 0)
(2.9 -1.37001e-15 0)
(2.9 1.92266e-14 0)
(2.9 -9.9708e-16 0)
(2.9 3.36279e-16 0)
(2.9 1.72192e-14 0)
(2.9 9.37279e-15 0)
(2.9 -1.94911e-14 0)
(2.9 -3.66666e-15 0)
(2.9 -2.36541e-14 0)
(2.9 -3.53759e-14 0)
(2.9 1.70444e-14 0)
(2.9 2.05944e-14 0)
(2.9 4.54758e-15 0)
(2.9 3.81825e-15 0)
(2.9 2.64434e-14 0)
(2.9 -1.77853e-14 0)
(2.9 -1.62747e-14 0)
(2.9 1.00984e-14 0)
(2.9 3.02436e-14 0)
(2.9 3.11738e-14 0)
(2.9 -4.92738e-16 0)
(2.9 -6.72456e-18 0)
(2.9 1.83228e-14 0)
(2.9 2.57572e-15 0)
(2.9 -1.48232e-14 0)
(2.9 -9.15411e-15 0)
(2.9 -1.16235e-15 0)
(2.9 -2.3306e-14 0)
(2.9 -8.83634e-15 0)
(2.9 4.65271e-16 0)
(2.9 1.01341e-14 0)
(2.9 2.08857e-14 0)
(2.9 -4.23079e-15 0)
(2.9 -4.89016e-15 0)
(2.9 1.8228e-15 0)
(2.9 -1.95162e-14 0)
(2.9 -3.0874e-14 0)
(2.9 -4.35937e-15 0)
(2.9 -1.82355e-14 0)
(2.9 -4.45887e-14 0)
(2.9 -1.37314e-15 0)
(2.9 1.43678e-14 0)
(2.9 -6.81205e-15 0)
(2.9 3.17808e-14 0)
(2.9 3.72451e-14 0)
(2.9 -1.91734e-14 0)
(2.9 1.37476e-14 0)
(2.9 -3.41136e-15 0)
(2.9 4.07113e-15 0)
(2.9 -2.55376e-14 0)
(2.9 -1.74354e-14 0)
(2.9 -2.14552e-14 0)
(2.9 3.48585e-14 0)
(2.9 4.10934e-14 0)
(2.9 -3.53492e-14 0)
(2.9 5.37103e-14 0)
(2.9 -2.36595e-14 0)
(2.9 -3.86546e-15 0)
(2.9 2.08467e-14 0)
(2.9 1.43269e-14 0)
(2.9 1.59783e-14 0)
(2.9 -2.34833e-14 0)
(2.9 -3.11885e-15 0)
(2.9 -6.78528e-15 0)
(2.9 -1.50841e-15 0)
(2.9 2.72808e-16 0)
(2.9 4.56088e-16 0)
(2.9 -3.40065e-14 0)
(2.9 1.48498e-15 0)
(2.9 -6.02305e-14 0)
(2.9 9.07151e-15 0)
(2.9 4.55839e-15 0)
(2.9 2.66318e-14 0)
(2.9 1.51336e-14 0)
(2.9 1.62494e-15 0)
(2.9 1.89514e-14 0)
(2.9 -7.32162e-15 0)
(2.9 -2.04427e-14 0)
(2.9 1.02681e-14 0)
(2.9 5.85812e-14 0)
(2.9 3.13989e-14 0)
(2.9 5.06116e-15 0)
(2.9 1.50798e-14 0)
(2.9 9.21579e-15 0)
(2.9 -2.32007e-14 0)
(2.9 7.40808e-15 0)
(2.9 -2.21729e-14 0)
(2.9 -3.46629e-14 0)
(2.9 -5.8828e-14 0)
(2.9 8.24802e-15 0)
(2.9 -5.50529e-15 0)
(2.9 1.21716e-14 0)
(2.9 -1.22694e-14 0)
(2.9 -8.19972e-15 0)
(2.9 1.05936e-14 0)
(2.9 -2.65097e-14 0)
(2.9 -9.21195e-15 0)
(2.9 1.97964e-14 0)
(2.9 -1.38535e-14 0)
(2.9 -1.15129e-14 0)
(2.9 -1.68847e-14 0)
(2.9 5.40228e-14 0)
(2.9 1.76035e-14 0)
(2.9 2.62802e-14 0)
(2.9 -1.35649e-14 0)
(2.9 -8.05682e-15 0)
(2.9 -9.19354e-15 0)
(2.9 2.60601e-14 0)
(2.9 1.93857e-14 0)
(2.9 4.90178e-15 0)
(2.9 -2.56225e-14 0)
(2.9 -2.90108e-14 0)
(2.9 3.23057e-14 0)
(2.9 5.21383e-15 0)
(2.9 1.77411e-14 0)
(2.9 7.84969e-15 0)
(2.9 1.2706e-14 0)
(2.9 1.88561e-14 0)
(2.9 3.71155e-14 0)
(2.9 1.00745e-14 0)
(2.9 -4.37366e-16 0)
(2.9 -3.13216e-14 0)
(2.9 -3.74918e-15 0)
(2.9 -4.2725e-14 0)
(2.9 -2.74893e-14 0)
(2.9 -7.35308e-15 0)
(2.9 2.59581e-14 0)
(2.9 2.54303e-15 0)
(2.9 -9.51954e-16 0)
(2.9 -9.65113e-15 0)
(2.9 1.34874e-14 0)
(2.9 -6.0474e-15 0)
(2.9 2.38926e-15 0)
(2.9 5.45665e-15 0)
(2.9 4.92279e-15 0)
(2.9 -5.96378e-15 0)
(2.9 1.22834e-14 0)
(2.9 -2.23058e-15 0)
(2.9 7.82365e-16 0)
(2.9 1.02633e-14 0)
(2.9 -6.26111e-15 0)
(2.9 9.11417e-15 0)
(2.9 -1.42807e-15 0)
(2.9 -1.01704e-14 0)
(2.9 -4.27723e-14 0)
(2.9 3.91078e-15 0)
(2.9 -2.18348e-14 0)
(2.9 -8.04245e-15 0)
(2.9 -1.78581e-14 0)
(2.9 1.90884e-15 0)
(2.9 -1.23769e-14 0)
(2.9 -4.38741e-15 0)
(2.9 -6.77176e-17 0)
(2.9 -9.16654e-15 0)
(2.9 -1.09065e-14 0)
(2.9 -3.77303e-15 0)
(2.9 -6.13424e-15 0)
(2.9 1.25321e-15 0)
(2.9 5.34641e-15 0)
(2.9 4.02768e-15 0)
(2.9 -2.76946e-15 0)
(2.9 1.45207e-14 0)
(2.9 1.43061e-14 0)
(2.9 9.26453e-15 0)
(2.9 -1.27873e-16 0)
(2.9 1.50607e-14 0)
(2.9 -1.11328e-15 0)
(2.9 1.53366e-14 0)
(2.9 -6.15039e-15 0)
(2.9 -2.81179e-15 0)
(2.9 7.06725e-15 0)
(2.9 1.19098e-14 0)
(2.9 1.05423e-14 0)
(2.9 -2.03103e-14 0)
(2.9 3.63749e-15 0)
(2.9 -1.87091e-14 0)
(2.9 4.8833e-14 0)
(2.9 -7.19627e-16 0)
(2.9 3.32744e-14 0)
(2.9 1.71364e-14 0)
(2.9 -1.4278e-14 0)
(2.9 3.56561e-14 0)
(2.9 2.20121e-15 0)
(2.9 -1.45531e-15 0)
(2.9 1.1143e-14 0)
(2.9 -5.38975e-15 0)
(2.9 -1.13808e-14 0)
(2.9 3.92384e-14 0)
(2.9 -5.45918e-15 0)
(2.9 2.33441e-14 0)
(2.9 3.61742e-15 0)
(2.9 -1.63819e-14 0)
(2.9 -2.6894e-14 0)
(2.9 6.5579e-15 0)
(2.9 -3.38836e-14 0)
(2.9 -1.55587e-14 0)
(2.9 6.15647e-15 0)
(2.9 1.09302e-15 0)
(2.9 -1.22561e-14 0)
(2.9 -6.09793e-15 0)
(2.9 -1.8363e-14 0)
(2.9 1.38506e-14 0)
(2.9 -1.57652e-15 0)
(2.9 -4.34497e-14 0)
(2.9 -3.50115e-14 0)
(2.9 -1.7873e-14 0)
(2.9 -2.69349e-14 0)
(2.9 -4.40428e-14 0)
(2.9 8.8263e-15 0)
(2.9 1.33128e-14 0)
(2.9 2.89351e-15 0)
(2.9 -1.95889e-14 0)
(2.9 2.57663e-14 0)
(2.9 -1.347e-14 0)
(2.9 -1.36007e-14 0)
(2.9 8.72517e-15 0)
(2.9 -2.57014e-14 0)
(2.9 -1.13118e-14 0)
(2.9 3.93505e-14 0)
(2.9 2.34406e-14 0)
(2.9 -3.45189e-15 0)
(2.9 4.91494e-15 0)
(2.9 -1.29841e-14 0)
(2.9 1.34049e-14 0)
(2.9 1.1939e-14 0)
(2.9 -1.91933e-14 0)
(2.9 -3.25954e-14 0)
(2.9 -6.66376e-15 0)
(2.9 -4.29861e-14 0)
(2.9 -1.22008e-14 0)
(2.9 4.6424e-14 0)
(2.9 6.63422e-14 0)
(2.9 1.2026e-14 0)
(2.9 -2.93022e-14 0)
(2.9 1.8965e-14 0)
(2.9 -2.2204e-14 0)
(2.9 9.74079e-15 0)
(2.9 1.9269e-14 0)
(2.9 6.62619e-15 0)
(2.9 -2.00367e-14 0)
(2.9 -2.77475e-14 0)
(2.9 2.50214e-14 0)
(2.9 4.12347e-15 0)
(2.9 2.9059e-14 0)
(2.9 -2.96377e-15 0)
(2.9 1.09512e-14 0)
(2.9 -3.53926e-14 0)
(2.9 2.31677e-14 0)
(2.9 1.38991e-14 0)
(2.9 1.93332e-14 0)
(2.9 5.20549e-15 0)
(2.9 1.7803e-14 0)
(2.9 -4.33509e-14 0)
(2.9 1.13017e-14 0)
(2.9 -1.34712e-15 0)
(2.9 -1.30026e-14 0)
(2.9 2.05221e-16 0)
(2.9 4.6944e-15 0)
(2.9 1.17387e-15 0)
(2.9 -3.24935e-14 0)
(2.9 5.43976e-15 0)
(2.9 2.70204e-15 0)
(2.9 3.08311e-15 0)
(2.9 2.93447e-14 0)
(2.9 8.91817e-15 0)
(2.9 -3.75185e-14 0)
(2.9 2.10335e-14 0)
(2.9 2.92758e-14 0)
(2.9 6.99687e-14 0)
(2.9 6.84075e-15 0)
(2.9 2.15445e-15 0)
(2.9 3.78603e-14 0)
(2.9 2.21838e-14 0)
(2.9 1.46382e-14 0)
(2.9 -3.34063e-14 0)
(2.9 -4.27508e-15 0)
(2.9 3.67483e-14 0)
(2.9 -7.40102e-15 0)
(2.9 1.11436e-14 0)
(2.9 3.79114e-14 0)
(2.9 3.49598e-15 0)
(2.9 8.24703e-15 0)
(2.9 2.22079e-14 0)
(2.9 1.54481e-15 0)
(2.9 -1.74193e-14 0)
(2.9 -3.3588e-14 0)
(2.9 -5.90982e-14 0)
(2.9 2.64819e-15 0)
(2.9 -3.25111e-14 0)
(2.9 4.82877e-14 0)
(2.9 2.62425e-14 0)
(2.9 6.7204e-14 0)
(2.9 -1.44497e-16 0)
(2.9 -7.88949e-15 0)
(2.9 -7.58716e-15 0)
(2.9 -8.19002e-15 0)
(2.9 -1.6674e-14 0)
(2.9 9.09109e-15 0)
(2.9 -2.68771e-14 0)
(2.9 1.72814e-15 0)
(2.9 1.95463e-14 0)
(2.9 4.05777e-15 0)
(2.9 1.04478e-14 0)
(2.9 4.37366e-15 0)
(2.9 -4.26373e-15 0)
(2.9 -9.86848e-15 0)
(2.9 2.49927e-14 0)
(2.9 -1.03584e-14 0)
(2.9 4.06656e-15 0)
(2.9 1.19004e-14 0)
(2.9 1.38549e-14 0)
(2.9 6.78664e-15 0)
(2.9 -1.49235e-15 0)
(2.9 2.83132e-15 0)
(2.9 2.72071e-14 0)
(2.9 9.49549e-15 0)
(2.9 -3.51982e-15 0)
(2.9 -2.30084e-15 0)
(2.9 -3.34576e-15 0)
(2.9 -1.05983e-14 0)
(2.9 -5.56217e-15 0)
(2.9 -6.85494e-16 0)
(2.9 1.09682e-14 0)
(2.9 2.29134e-14 0)
(2.9 3.98706e-14 0)
(2.9 1.51675e-16 0)
(2.9 1.93102e-14 0)
(2.9 3.83867e-15 0)
(2.9 1.73318e-14 0)
(2.9 1.7848e-15 0)
(2.9 -3.89609e-16 0)
(2.9 9.27138e-15 0)
(2.9 7.55826e-15 0)
(2.9 9.05792e-15 0)
(2.9 2.27147e-15 0)
(2.9 1.74608e-14 0)
(2.9 1.77594e-14 0)
(2.9 1.10849e-14 0)