/*--------------------------------*- C++ -*----------------------------------*\
| =========                 |                                                 |
| \\      /  F ield         | OpenFOAM: The Open Source CFD Toolbox           |
|  \\    /   O peration     | Version:  2412                                  |
|   \\  /    A nd           | Website:  www.openfoam.com                      |
|    \\/     M anipulation  |                                                 |
\*---------------------------------------------------------------------------*/
FoamFile
{
    version     2.0;
    format      ascii;
    arch        "LSB;label=32;scalar=64";
    class       volScalarField;
    location    "0.00781648";
    object      rho;
}
// * * * * * * * * * * * * * * * * * * * * * * * * * * * * * * * * * * * * * //

dimensions      [1 -3 0 0 0 0 0];

internalField   nonuniform List<scalar> 
100
(
1.12308
1.12308
1.12308
1.12308
1.12308
1.12308
1.12308
1.12308
1.12308
1.12308
1.12308
1.12308
1.12308
1.12308
1.12308
1.12308
1.12308
1.12308
1.12308
1.12308
1.12308
1.12308
1.12297
1.11959
1.09787
1.05384
1.00742
0.968333
0.935123
0.905012
0.876433
0.848857
0.821863
0.795812
0.769923
0.74541
0.721248
0.696902
0.676571
0.652221
0.631961
0.614415
0.592035
0.571446
0.551168
0.54055
0.522948
0.496875
0.473727
0.467253
0.478756
0.477556
0.44866
0.431533
0.44875
0.490953
0.491342
0.449194
0.429482
0.447876
0.48833
0.490134
0.454481
0.428881
0.435755
0.475242
0.512761
0.513315
0.489147
0.453427
0.424604
0.402729
0.386309
0.382352
0.381878
0.383034
0.383138
0.380345
0.375491
0.375152
0.375521
0.37852
0.383261
0.384216
0.385498
0.394472
0.40023
0.331359
0.178706
0.160399
0.160357
0.160357
0.160357
0.160357
0.160357
0.160357
0.160357
0.160357
0.160357
0.160357
)
;

boundaryField
{
    sides
    {
        type            calculated;
        value           nonuniform List<scalar> 2(0.160357 1.12308);
    }
    empty
    {
        type            empty;
    }
}


// ************************************************************************* //
