/*--------------------------------*- C++ -*----------------------------------*\
| =========                 |                                                 |
| \\      /  F ield         | OpenFOAM: The Open Source CFD Toolbox           |
|  \\    /   O peration     | Version:  2412                                  |
|   \\  /    A nd           | Website:  www.openfoam.com                      |
|    \\/     M anipulation  |                                                 |
\*---------------------------------------------------------------------------*/
FoamFile
{
    version     2.0;
    format      ascii;
    arch        "LSB;label=32;scalar=64";
    class       surfaceScalarField;
    location    "0.0183041";
    object      phiRhoY_Y_N2;
}
// * * * * * * * * * * * * * * * * * * * * * * * * * * * * * * * * * * * * * //

dimensions      [1 0 -1 0 0 0 0];

internalField   nonuniform List<scalar> 
99
(
26.481
51.83
76.7424
102.218
128.536
157.032
189.851
228.324
270.798
311.983
346.857
374.273
388.846
392.59
395.153
399.504
406.621
415.336
423.543
430.705
437.091
443.263
449.202
454.898
460.452
465.519
470.42
475.041
479.41
483.474
487.369
491.128
494.547
497.7
500.699
503.653
506.291
508.521
510.518
512.602
514.762
516.332
517.134
518.044
520.048
520.922
520.719
521.535
522.75
522.276
520.687
520.027
520.785
526.519
528.385
520.423
509.064
513.183
541.533
543.554
511.648
488.116
507.279
559.44
561.023
502.343
471.725
500.528
569.708
572.304
512.217
467.096
483.535
564.036
577.121
535.113
474.931
472.207
519.255
575.071
571.987
301.176
43.2706
-2.94675
18.1949
60.1478
88.8787
105.073
51.2854
12.4805
1.88224
0.573682
0.258931
0.0857028
0.0146724
0.00164098
0.000131057
5.72556e-06
7.9808e-08
)
;

boundaryField
{
    sides
    {
        type            calculated;
        value           uniform 0;
    }
    empty
    {
        type            empty;
    }
}


// ************************************************************************* //
