/*--------------------------------*- C++ -*----------------------------------*\
| =========                 |                                                 |
| \\      /  F ield         | OpenFOAM: The Open Source CFD Toolbox           |
|  \\    /   O peration     | Version:  2412                                  |
|   \\  /    A nd           | Website:  www.openfoam.com                      |
|    \\/     M anipulation  |                                                 |
\*---------------------------------------------------------------------------*/
FoamFile
{
    version     2.0;
    format      ascii;
    arch        "LSB;label=32;scalar=64";
    class       volScalarField;
    location    "0.00794238";
    object      rhoY_Y_N2;
}
// * * * * * * * * * * * * * * * * * * * * * * * * * * * * * * * * * * * * * //

dimensions      [1 -3 0 0 0 0 0];

internalField   nonuniform List<scalar> 
100
(
1.12308
1.12308
1.12308
1.12308
1.12308
1.12308
1.12308
1.12308
1.12308
1.12308
1.12308
1.12308
1.12308
1.12308
1.12308
1.12308
1.12308
1.12308
1.12308
1.12308
1.12308
1.12307
1.12255
1.11421
1.08227
1.03531
0.99197
0.956005
0.924685
0.895691
0.867886
0.840963
0.814544
0.789076
0.763736
0.739735
0.716237
0.692151
0.672508
0.648892
0.628354
0.611421
0.590096
0.569601
0.548647
0.537409
0.522867
0.498888
0.473909
0.722279
0.530177
0.531151
0.502425
0.469608
0.47281
0.513104
0.524687
0.490276
0.456457
0.463057
0.503839
0.516663
0.491315
0.453858
0.451538
0.48077
0.526446
0.522361
0.445444
0.315493
0.196726
0.111315
0.0571038
0.0273105
0.0122776
0.0051324
0.0019906
0.000715237
0.000238669
7.54884e-05
2.29985e-05
6.65181e-06
1.83004e-06
4.67811e-07
1.08979e-07
2.33801e-08
4.58348e-09
7.07917e-10
4.38371e-11
7.85491e-14
1.05341e-20
1.5343e-33
2.76671e-52
-2.14589e-75
0
0
0
0
0
0
)
;

boundaryField
{
    sides
    {
        type            calculated;
        value           nonuniform List<scalar> 2(0 1.12308);
    }
    empty
    {
        type            empty;
    }
}


// ************************************************************************* //
