/*--------------------------------*- C++ -*----------------------------------*\
| =========                 |                                                 |
| \\      /  F ield         | OpenFOAM: The Open Source CFD Toolbox           |
|  \\    /   O peration     | Version:  2412                                  |
|   \\  /    A nd           | Website:  www.openfoam.com                      |
|    \\/     M anipulation  |                                                 |
\*---------------------------------------------------------------------------*/
FoamFile
{
    version     2.0;
    format      ascii;
    arch        "LSB;label=32;scalar=64";
    class       volScalarField;
    location    "0.0103116";
    object      rhoY_Y_N2;
}
// * * * * * * * * * * * * * * * * * * * * * * * * * * * * * * * * * * * * * //

dimensions      [1 -3 0 0 0 0 0];

internalField   nonuniform List<scalar> 
100
(
1.12308
1.12308
1.12308
1.12308
1.12308
1.12308
1.12308
1.12308
1.12308
1.12308
1.12308
1.12308
1.12308
1.12308
1.12301
1.12066
1.10344
1.06557
1.02476
0.991239
0.963841
0.939622
0.916839
0.89477
0.873175
0.852005
0.831205
0.810839
0.790743
0.77124
0.751875
0.7333
0.71513
0.696663
0.680561
0.6619
0.646491
0.6311
0.613731
0.59906
0.583978
0.570033
0.553932
0.538998
0.524233
0.514115
0.503884
0.488226
0.469559
0.718791
0.521071
0.525501
0.512057
0.478998
0.469232
0.499637
0.524372
0.5062
0.458679
0.451482
0.492693
0.523245
0.507254
0.460075
0.448717
0.476784
0.51387
0.511134
0.472032
0.439805
0.44262
0.478126
0.533671
0.539421
0.478404
0.357286
0.235942
0.143446
0.0806576
0.0419714
0.0208884
0.00983527
0.00436661
0.00182422
0.00071336
0.000263244
9.22779e-05
3.118e-05
1.00932e-05
3.13457e-06
9.18517e-07
2.53376e-07
6.61832e-08
1.63979e-08
3.96572e-09
9.3432e-10
2.11777e-10
4.69294e-11
9.12915e-12
1.21356e-12
)
;

boundaryField
{
    sides
    {
        type            calculated;
        value           nonuniform List<scalar> 2(0 1.12308);
    }
    empty
    {
        type            empty;
    }
}


// ************************************************************************* //
