/*--------------------------------*- C++ -*----------------------------------*\
| =========                 |                                                 |
| \\      /  F ield         | OpenFOAM: The Open Source CFD Toolbox           |
|  \\    /   O peration     | Version:  2412                                  |
|   \\  /    A nd           | Website:  www.openfoam.com                      |
|    \\/     M anipulation  |                                                 |
\*---------------------------------------------------------------------------*/
FoamFile
{
    version     2.0;
    format      ascii;
    arch        "LSB;label=32;scalar=64";
    class       volScalarField;
    location    "0.00962625";
    object      p;
}
// * * * * * * * * * * * * * * * * * * * * * * * * * * * * * * * * * * * * * //

dimensions      [1 -1 -2 0 0 0 0];

internalField   nonuniform List<scalar> 
100
(
100000
100000
100000
100000
100000
100000
100000
100000
100000
100000
100000
100000
100000
100000
100000
100000
99996.6
99837.1
98310.8
94210.6
89333.2
85265.5
81995.7
79157.5
76522.9
73998.5
71548.9
69176.3
66846
64633.4
62355.7
60418.9
58008.6
56639.9
53782.5
53156.6
49995.2
49556.8
46885.9
46036.4
43860.2
42761.2
41014.4
39719.4
38309.6
36773.8
35527.9
34657.1
33632.6
32447
31292.3
31029.8
32077.3
32491.1
31884.7
31005.4
31226.4
32612.5
32682
31875.7
31030.5
31245.6
32353.1
32432.2
31981.6
31114.8
31245.4
31780.7
32556.8
32412.9
32342.3
31534.3
31473.6
31659.7
31976.8
32067
31531
31629.9
31942.3
32222.5
32276.2
31998.9
31774.7
31759.1
31831
32148.1
32272.7
32240.3
31927.4
31462.7
31375.4
31335.2
31360.5
32045.2
33926.9
33189
21582.6
10512.8
10000.4
10000
)
;

boundaryField
{
    sides
    {
        type            zeroGradient;
    }
    empty
    {
        type            empty;
    }
}


// ************************************************************************* //
