/*--------------------------------*- C++ -*----------------------------------*\
| =========                 |                                                 |
| \\      /  F ield         | OpenFOAM: The Open Source CFD Toolbox           |
|  \\    /   O peration     | Version:  2412                                  |
|   \\  /    A nd           | Website:  www.openfoam.com                      |
|    \\/     M anipulation  |                                                 |
\*---------------------------------------------------------------------------*/
FoamFile
{
    version     2.0;
    format      ascii;
    arch        "LSB;label=32;scalar=64";
    class       volScalarField;
    location    "0.0222069";
    object      rhoY_Y_N2;
}
// * * * * * * * * * * * * * * * * * * * * * * * * * * * * * * * * * * * * * //

dimensions      [1 -3 0 0 0 0 0];

internalField   nonuniform List<scalar> 
100
(
0.569351
0.569378
0.569523
0.569555
0.569463
0.56921
0.568846
0.568486
0.568059
0.56762
0.567085
0.566655
0.566186
0.565755
0.565228
0.564507
0.563967
0.562428
0.561275
0.559513
0.558317
0.557365
0.556713
0.557198
0.557818
0.559842
0.561422
0.566568
0.578309
0.588895
0.584396
0.575645
0.56654
0.556103
0.54515
0.536372
0.528667
0.521454
0.516073
0.512509
0.50614
0.499168
0.492259
0.486419
0.482031
0.475661
0.469108
0.465483
0.462646
0.719784
0.515514
0.510392
0.50266
0.498082
0.49602
0.491948
0.485812
0.486393
0.495307
0.493716
0.473901
0.465553
0.489964
0.512702
0.493923
0.447607
0.447161
0.507675
0.538672
0.492901
0.42718
0.432967
0.509774
0.653362
0.958981
1.06231
1.03343
0.999276
1.04917
1.05271
1.03947
1.05534
1.03723
1.05118
1.09122
1.10348
1.13629
1.22874
1.01556
0.581965
0.227849
0.0662072
0.0151224
0.00275813
0.000396815
4.21018e-05
2.78627e-06
7.54318e-08
-7.67526e-10
-1.26532e-10
)
;

boundaryField
{
    sides
    {
        type            calculated;
        value           nonuniform List<scalar> 2(0 1.12308);
    }
    empty
    {
        type            empty;
    }
}


// ************************************************************************* //
