/*--------------------------------*- C++ -*----------------------------------*\
| =========                 |                                                 |
| \\      /  F ield         | OpenFOAM: The Open Source CFD Toolbox           |
|  \\    /   O peration     | Version:  2412                                  |
|   \\  /    A nd           | Website:  www.openfoam.com                      |
|    \\/     M anipulation  |                                                 |
\*---------------------------------------------------------------------------*/
FoamFile
{
    version     2.0;
    format      ascii;
    arch        "LSB;label=32;scalar=64";
    class       volScalarField;
    location    "0.017147";
    object      rho;
}
// * * * * * * * * * * * * * * * * * * * * * * * * * * * * * * * * * * * * * //

dimensions      [1 -3 0 0 0 0 0];

internalField   nonuniform List<scalar> 
100
(
0.842931
0.847609
0.851537
0.859429
0.870037
0.878921
0.882473
0.879708
0.869029
0.853998
0.83897
0.82535
0.812864
0.800781
0.788725
0.776712
0.764785
0.753071
0.741472
0.73014
0.718964
0.707899
0.697335
0.686175
0.676234
0.665103
0.655257
0.645075
0.634906
0.625417
0.615479
0.606322
0.596279
0.587373
0.577926
0.569002
0.559475
0.550655
0.541993
0.533572
0.524671
0.515839
0.507838
0.500619
0.492525
0.484226
0.478025
0.47159
0.464208
0.459768
0.459389
0.461581
0.463619
0.459684
0.452401
0.454715
0.473459
0.479159
0.453666
0.433522
0.44866
0.494458
0.496726
0.443438
0.416117
0.443454
0.508573
0.509856
0.444983
0.410055
0.431539
0.501846
0.517075
0.466237
0.414898
0.419304
0.476326
0.516007
0.499821
0.436283
0.40912
0.425106
0.493532
0.552037
0.853735
0.96364
1.03233
1.09391
1.05672
0.97031
0.905755
0.869914
0.859015
0.865042
0.870142
0.867817
0.862685
0.845663
0.838152
0.83215
)
;

boundaryField
{
    sides
    {
        type            calculated;
        value           nonuniform List<scalar> 2(0.83215 0.842931);
    }
    empty
    {
        type            empty;
    }
}


// ************************************************************************* //
