/*--------------------------------*- C++ -*----------------------------------*\
| =========                 |                                                 |
| \\      /  F ield         | OpenFOAM: The Open Source CFD Toolbox           |
|  \\    /   O peration     | Version:  2412                                  |
|   \\  /    A nd           | Website:  www.openfoam.com                      |
|    \\/     M anipulation  |                                                 |
\*---------------------------------------------------------------------------*/
FoamFile
{
    version     2.0;
    format      ascii;
    arch        "LSB;label=32;scalar=64";
    class       volScalarField;
    location    "0.0076907";
    object      rho;
}
// * * * * * * * * * * * * * * * * * * * * * * * * * * * * * * * * * * * * * //

dimensions      [1 -3 0 0 0 0 0];

internalField   nonuniform List<scalar> 
100
(
1.12308
1.12308
1.12308
1.12308
1.12308
1.12308
1.12308
1.12308
1.12308
1.12308
1.12308
1.12308
1.12308
1.12308
1.12308
1.12308
1.12308
1.12308
1.12308
1.12308
1.12308
1.12308
1.12306
1.12199
1.1097
1.07247
1.02444
0.981869
0.94629
0.914805
0.885337
0.857055
0.829453
0.802797
0.776347
0.751289
0.726461
0.701834
0.680753
0.655721
0.63572
0.617383
0.594004
0.573478
0.554217
0.543045
0.522714
0.495323
0.474469
0.47403
0.480991
0.471357
0.44032
0.431825
0.462831
0.494771
0.482612
0.439443
0.430021
0.462104
0.49186
0.482877
0.442899
0.428316
0.443815
0.491762
0.514713
0.507647
0.477505
0.44294
0.416615
0.394437
0.384444
0.382609
0.383222
0.383246
0.381519
0.376112
0.374942
0.375183
0.377163
0.382614
0.384057
0.384538
0.389526
0.398899
0.379346
0.223921
0.161145
0.160357
0.160357
0.160357
0.160357
0.160357
0.160357
0.160357
0.160357
0.160357
0.160357
0.160357
)
;

boundaryField
{
    sides
    {
        type            calculated;
        value           nonuniform List<scalar> 2(0.160357 1.12308);
    }
    empty
    {
        type            empty;
    }
}


// ************************************************************************* //
