/*--------------------------------*- C++ -*----------------------------------*\
| =========                 |                                                 |
| \\      /  F ield         | OpenFOAM: The Open Source CFD Toolbox           |
|  \\    /   O peration     | Version:  2412                                  |
|   \\  /    A nd           | Website:  www.openfoam.com                      |
|    \\/     M anipulation  |                                                 |
\*---------------------------------------------------------------------------*/
FoamFile
{
    version     2.0;
    format      ascii;
    arch        "LSB;label=32;scalar=64";
    class       volScalarField;
    location    "0.0076907";
    object      TTR;
}
// * * * * * * * * * * * * * * * * * * * * * * * * * * * * * * * * * * * * * //

dimensions      [0 0 0 1 0 0 0];

internalField   nonuniform List<scalar> 
100
(
300
300
300
300
300
300
300
300
300
300
300
300
300
300
300
300
300
300
300
300
300
300
299.999
299.939
299.166
296.375
292.319
288.642
285.573
282.825
280.175
277.618
274.913
272.638
269.316
268.402
262.572
265.728
254.989
261.956
251.78
253.656
248.519
249.782
245.958
240.828
236.517
241.006
244.841
236.406
221.314
219.641
240.029
253.719
236.898
213.133
216.426
243.44
255.443
237.428
215.665
217.828
240.033
254.851
244.884
220.115
205.426
209.302
229.954
258.967
285.087
302.397
313.323
319.441
322.498
323.738
323.533
322.523
322.161
321.894
322.316
323.078
323.075
323.277
323.499
320.93
304.596
262.633
240.201
240
240
240
240
240
240
240
240
240
240
240
)
;

boundaryField
{
    sides
    {
        type            zeroGradient;
    }
    empty
    {
        type            empty;
    }
}


// ************************************************************************* //
