/*--------------------------------*- C++ -*----------------------------------*\
| =========                 |                                                 |
| \\      /  F ield         | OpenFOAM: The Open Source CFD Toolbox           |
|  \\    /   O peration     | Version:  2412                                  |
|   \\  /    A nd           | Website:  www.openfoam.com                      |
|    \\/     M anipulation  |                                                 |
\*---------------------------------------------------------------------------*/
FoamFile
{
    version     2.0;
    format      ascii;
    arch        "LSB;label=32;scalar=64";
    class       volScalarField;
    location    "0.0279225";
    object      TTR;
}
// * * * * * * * * * * * * * * * * * * * * * * * * * * * * * * * * * * * * * //

dimensions      [0 0 0 1 0 0 0];

internalField   nonuniform List<scalar> 
100
(
224.822
224.827
224.707
224.722
224.524
224.637
224.289
224.772
223.949
225.227
223.322
225.94
222.559
226.548
222.079
226.569
222.113
226.139
222.506
225.511
222.966
224.892
223.285
224.365
223.444
224.001
223.481
223.712
223.394
223.46
223.269
223.238
223.079
223.007
222.859
222.772
222.674
222.637
222.397
222.277
222.376
222.421
222.003
222.05
222.575
222.098
221.269
221.447
222.785
223.092
222.182
222.963
225.473
226.085
225.646
226.312
226.721
226.317
226.32
234.571
238.556
229.599
273.727
319.317
294.908
320.28
294.528
318.721
305.265
301.756
321.901
287.235
324.522
289.131
312.878
306.862
301.606
316.338
300.304
311.906
306.096
305.404
307.678
308.292
307.539
309.744
302.513
298.758
299.938
324.339
364.699
403.356
415.672
428.689
423.56
428.103
420.328
424.47
420.761
423.082
)
;

boundaryField
{
    sides
    {
        type            zeroGradient;
    }
    empty
    {
        type            empty;
    }
}


// ************************************************************************* //
