/*--------------------------------*- C++ -*----------------------------------*\
| =========                 |                                                 |
| \\      /  F ield         | OpenFOAM: The Open Source CFD Toolbox           |
|  \\    /   O peration     | Version:  2412                                  |
|   \\  /    A nd           | Website:  www.openfoam.com                      |
|    \\/     M anipulation  |                                                 |
\*---------------------------------------------------------------------------*/
FoamFile
{
    version     2.0;
    format      ascii;
    arch        "LSB;label=32;scalar=64";
    class       volScalarField;
    location    "0.0409279";
    object      rhoY_Y_N2;
}
// * * * * * * * * * * * * * * * * * * * * * * * * * * * * * * * * * * * * * //

dimensions      [1 -3 0 0 0 0 0];

internalField   nonuniform List<scalar> 
100
(
0.244079
0.243896
0.243646
0.24336
0.243095
0.242887
0.242756
0.242697
0.242686
0.2427
0.242719
0.242724
0.242694
0.242618
0.242521
0.242446
0.242421
0.242393
0.241995
0.242314
0.271664
0.514651
0.622011
0.616859
0.591753
0.583712
0.584061
0.588044
0.593464
0.610888
0.632734
0.641302
0.647108
0.650761
0.640169
0.618531
0.61361
0.618688
0.625933
0.643723
0.662385
0.671792
0.678707
0.683907
0.681278
0.678421
0.683396
0.691919
0.704388
0.973289
0.773893
0.761519
0.752049
0.753418
0.761199
0.772463
0.779054
0.780723
0.772003
0.768514
0.774638
0.787025
0.810668
0.825623
0.831541
0.827094
0.809914
0.801812
0.805044
0.814374
0.830461
0.84231
0.855942
0.861543
0.866473
0.869755
0.870692
0.876603
0.878872
0.88043
0.884398
0.895105
0.90791
0.92416
0.935968
0.935424
0.910528
0.798513
0.452395
0.183277
0.0471678
0.00670756
0.00101798
5.494e-05
2.19101e-06
-2.67246e-06
-1.28953e-07
-4.33778e-08
-4.00737e-09
-2.01132e-10
)
;

boundaryField
{
    sides
    {
        type            calculated;
        value           nonuniform List<scalar> 2(0 1.12308);
    }
    empty
    {
        type            empty;
    }
}


// ************************************************************************* //
