/*--------------------------------*- C++ -*----------------------------------*\
| =========                 |                                                 |
| \\      /  F ield         | OpenFOAM: The Open Source CFD Toolbox           |
|  \\    /   O peration     | Version:  2412                                  |
|   \\  /    A nd           | Website:  www.openfoam.com                      |
|    \\/     M anipulation  |                                                 |
\*---------------------------------------------------------------------------*/
FoamFile
{
    version     2.0;
    format      ascii;
    arch        "LSB;label=32;scalar=64";
    class       volScalarField;
    location    "0.0249805";
    object      rhoY_Y_N2;
}
// * * * * * * * * * * * * * * * * * * * * * * * * * * * * * * * * * * * * * //

dimensions      [1 -3 0 0 0 0 0];

internalField   nonuniform List<scalar> 
100
(
0.47862
0.478644
0.47875
0.478847
0.478957
0.479005
0.478885
0.478723
0.478435
0.478245
0.477934
0.477692
0.47741
0.476987
0.47686
0.476194
0.476034
0.475365
0.475023
0.47457
0.473963
0.473551
0.472714
0.472245
0.471408
0.471019
0.47028
0.469863
0.469047
0.468164
0.46682
0.465317
0.463647
0.462035
0.460593
0.459724
0.459719
0.460524
0.460339
0.457949
0.455128
0.458232
0.476282
0.488694
0.487317
0.48309
0.47722
0.471073
0.467176
0.722565
0.5141
0.507604
0.500276
0.495187
0.492379
0.493348
0.492421
0.486783
0.482629
0.487846
0.493249
0.482739
0.467889
0.4758
0.504399
0.503533
0.461864
0.484307
0.875521
1.07262
1.08703
1.06511
1.01582
1.04107
1.06999
1.09825
1.13226
1.11643
1.11702
1.10276
1.08024
1.07618
1.06084
1.06279
1.062
1.0676
1.10099
1.19846
1.01775
0.60279
0.244537
0.0724545
0.016843
0.00302935
0.000410942
3.77711e-05
2.09448e-06
3.64414e-08
-1.93299e-09
-1.41924e-10
)
;

boundaryField
{
    sides
    {
        type            calculated;
        value           nonuniform List<scalar> 2(0 1.12308);
    }
    empty
    {
        type            empty;
    }
}


// ************************************************************************* //
