/*--------------------------------*- C++ -*----------------------------------*\
| =========                 |                                                 |
| \\      /  F ield         | OpenFOAM: The Open Source CFD Toolbox           |
|  \\    /   O peration     | Version:  2412                                  |
|   \\  /    A nd           | Website:  www.openfoam.com                      |
|    \\/     M anipulation  |                                                 |
\*---------------------------------------------------------------------------*/
FoamFile
{
    version     2.0;
    format      ascii;
    arch        "LSB;label=32;scalar=64";
    class       surfaceScalarField;
    location    "0.0470415";
    object      phiRhoY_Y_N2;
}
// * * * * * * * * * * * * * * * * * * * * * * * * * * * * * * * * * * * * * //

dimensions      [1 0 -1 0 0 0 0];

internalField   nonuniform List<scalar> 
99
(
-44.0324
-298.699
-487.075
-443.724
-422.79
-422.041
-422.278
-430.707
-489.943
-517.051
-518.081
-518.299
-505.425
-472.693
-463.76
-463.576
-468.927
-490.091
-496.216
-496.811
-486.702
-452.838
-441.268
-441.229
-449.913
-477.661
-484.445
-484.864
-469.511
-432.693
-420.735
-420.327
-434.745
-488.965
-505.935
-507.136
-499.85
-447.074
-399.123
-386.575
-386.031
-387.914
-416.297
-448.423
-454.715
-456.095
-450.776
-437.11
-430.908
-428.341
-423.202
-409.041
-399.282
-398.323
-400.498
-411.302
-416.003
-415.89
-401.003
-379.313
-372.189
-372.116
-416.473
-479.604
-492.333
-493.838
-483.571
-429.164
-344.166
-292.993
-269.719
-258.272
-249.621
-239.734
-231.29
-227.98
-227.454
-228.083
-228.637
-227.218
-218.112
-199.52
-169.371
-131.851
-88.9622
-46.5756
-13.4183
-0.460173
-0.683053
-0.635177
0
-0.021593
-0.0184394
-2.71217e-05
-2.24419e-05
0
0
0
0
)
;

boundaryField
{
    sides
    {
        type            calculated;
        value           uniform 0;
    }
    empty
    {
        type            empty;
    }
}


// ************************************************************************* //
