/*--------------------------------*- C++ -*----------------------------------*\
| =========                 |                                                 |
| \\      /  F ield         | OpenFOAM: The Open Source CFD Toolbox           |
|  \\    /   O peration     | Version:  2412                                  |
|   \\  /    A nd           | Website:  www.openfoam.com                      |
|    \\/     M anipulation  |                                                 |
\*---------------------------------------------------------------------------*/
FoamFile
{
    version     2.0;
    format      ascii;
    arch        "LSB;label=32;scalar=64";
    class       volVectorField;
    location    "0.0281877";
    object      U;
}
// * * * * * * * * * * * * * * * * * * * * * * * * * * * * * * * * * * * * * //

dimensions      [0 1 -1 0 0 0 0];

internalField   nonuniform List<vector> 
100
(
(2.48141 0 0)
(7.49093 0 0)
(12.4458 0 0)
(17.4282 0 0)
(22.3515 0 0)
(27.3274 0 0)
(32.1844 0 0)
(37.2558 0 0)
(42.0496 0 0)
(47.3005 0 0)
(51.9586 0 0)
(57.2623 0 0)
(61.8823 0 0)
(67.1251 0 0)
(71.981 0 0)
(76.9984 0 0)
(82.0959 0 0)
(86.8885 0 0)
(92.1349 0 0)
(96.8477 0 0)
(102.137 0 0)
(106.887 0 0)
(112.127 0 0)
(116.947 0 0)
(122.122 0 0)
(127.021 0 0)
(132.127 0 0)
(137.077 0 0)
(142.14 0 0)
(147.114 0 0)
(152.157 0 0)
(157.163 0 0)
(162.198 0 0)
(167.215 0 0)
(172.232 0 0)
(177.209 0 0)
(182.142 0 0)
(187.062 0 0)
(191.971 0 0)
(196.84 0 0)
(201.787 0 0)
(206.892 0 0)
(211.945 0 0)
(216.815 0 0)
(221.684 0 0)
(226.375 0 0)
(230.301 0 0)
(233.489 0 0)
(236.172 0 0)
(238.139 0 0)
(238.649 0 0)
(238.888 0 0)
(241.782 0 0)
(248.819 0 0)
(252.884 0 0)
(253.173 0 0)
(253.513 0 0)
(253.892 0 0)
(252.782 0 0)
(258.218 0 0)
(279.877 0 0)
(163.093 0 0)
(22.2278 0 0)
(11.1496 0 0)
(6.84952 0 0)
(-4.06167 0 0)
(-9.00325 0 0)
(-10.8354 0 0)
(-1.72625 0 0)
(-5.00582 0 0)
(4.13445 0 0)
(2.83292 0 0)
(3.18417 0 0)
(6.14523 0 0)
(-0.283494 0 0)
(2.55944 0 0)
(-3.28385 0 0)
(-1.58343 0 0)
(1.1269 0 0)
(3.58392 0 0)
(7.7803 0 0)
(2.8223 0 0)
(-4.21269 0 0)
(-9.02058 0 0)
(-9.02098 0 0)
(-3.24074 0 0)
(4.65665 0 0)
(8.59101 0 0)
(8.32088 0 0)
(2.70485 0 0)
(-3.05759 0 0)
(-5.57751 0 0)
(-5.18203 0 0)
(-1.70438 0 0)
(1.88573 0 0)
(1.86573 0 0)
(-0.423709 0 0)
(-3.71468 0 0)
(-4.52903 0 0)
(-2.41068 0 0)
)
;

boundaryField
{
    sides
    {
        type            fixedValue;
        value           uniform (0 0 0);
    }
    empty
    {
        type            empty;
    }
}


// ************************************************************************* //
