/*--------------------------------*- C++ -*----------------------------------*\
| =========                 |                                                 |
| \\      /  F ield         | OpenFOAM: The Open Source CFD Toolbox           |
|  \\    /   O peration     | Version:  2412                                  |
|   \\  /    A nd           | Website:  www.openfoam.com                      |
|    \\/     M anipulation  |                                                 |
\*---------------------------------------------------------------------------*/
FoamFile
{
    version     2.0;
    format      ascii;
    arch        "LSB;label=32;scalar=64";
    class       volScalarField;
    location    "0.0319704";
    object      rho;
}
// * * * * * * * * * * * * * * * * * * * * * * * * * * * * * * * * * * * * * //

dimensions      [1 -3 0 0 0 0 0];

internalField   nonuniform List<scalar> 
100
(
0.338495
0.338513
0.338537
0.338598
0.338586
0.338651
0.338587
0.338628
0.338587
0.338468
0.338443
0.338102
0.338134
0.33783
0.337795
0.337607
0.337405
0.33727
0.336924
0.336799
0.336435
0.336318
0.335986
0.335829
0.335515
0.335312
0.335018
0.33478
0.334478
0.334198
0.333896
0.333615
0.333331
0.33304
0.332743
0.332454
0.332166
0.331859
0.331631
0.331645
0.331486
0.331219
0.331262
0.331711
0.33268
0.334011
0.335595
0.33838
0.342181
0.344128
0.346257
0.455808
0.808407
0.883469
0.87051
0.858196
0.863099
0.866805
0.871133
0.88052
0.89017
0.910469
0.922988
0.930898
0.933422
0.927335
0.947094
0.961255
0.976769
0.980079
0.989662
1.00753
1.0057
1.0417
1.06789
1.08341
1.0911
1.0892
1.08576
1.07367
1.06848
1.06653
1.06491
1.06787
1.07137
1.07757
1.08179
1.08535
1.08102
1.05454
0.998087
0.940686
0.901622
0.885394
0.877443
0.878157
0.882114
0.885822
0.894104
0.893921
)
;

boundaryField
{
    sides
    {
        type            calculated;
        value           nonuniform List<scalar> 2(0.893921 0.338495);
    }
    empty
    {
        type            empty;
    }
}


// ************************************************************************* //
