/*--------------------------------*- C++ -*----------------------------------*\
| =========                 |                                                 |
| \\      /  F ield         | OpenFOAM: The Open Source CFD Toolbox           |
|  \\    /   O peration     | Version:  2412                                  |
|   \\  /    A nd           | Website:  www.openfoam.com                      |
|    \\/     M anipulation  |                                                 |
\*---------------------------------------------------------------------------*/
FoamFile
{
    version     2.0;
    format      ascii;
    arch        "LSB;label=32;scalar=64";
    class       volScalarField;
    location    "0.0497408";
    object      TTR;
}
// * * * * * * * * * * * * * * * * * * * * * * * * * * * * * * * * * * * * * //

dimensions      [0 0 0 1 0 0 0];

internalField   nonuniform List<scalar> 
100
(
323.31
302.889
319.106
301.293
318.402
313.464
325.436
322.017
301.781
258.439
249.892
252.524
253.53
255.441
254.07
254.576
251.295
254.141
252.444
258.203
258.487
261.898
259.737
260.955
255.271
255.266
253.483
255.546
255.034
258.595
260.43
262.046
261.805
262.216
261.428
261.607
261.445
261.552
260.985
260.839
261.183
261.892
263.095
264.357
264.948
265.236
264.493
263.714
264.004
265.182
269.513
272.806
273.93
274.475
274.226
270.966
266.382
264.102
263.527
263.621
263.944
264.194
264.504
264.802
265.656
266.044
267.253
267.836
269.045
269.4
269.343
268.718
266.943
267.833
264.697
267.189
263.171
266.069
263.97
265.977
268.521
268.913
280.17
287.532
310.406
327.451
351.219
360.673
366.155
370.277
370.956
373.791
370.857
373.9
369.814
372.654
368.892
370.821
368.84
369.366
)
;

boundaryField
{
    sides
    {
        type            zeroGradient;
    }
    empty
    {
        type            empty;
    }
}


// ************************************************************************* //
