/*--------------------------------*- C++ -*----------------------------------*\
| =========                 |                                                 |
| \\      /  F ield         | OpenFOAM: The Open Source CFD Toolbox           |
|  \\    /   O peration     | Version:  2412                                  |
|   \\  /    A nd           | Website:  www.openfoam.com                      |
|    \\/     M anipulation  |                                                 |
\*---------------------------------------------------------------------------*/
FoamFile
{
    version     2.0;
    format      ascii;
    arch        "LSB;label=32;scalar=64";
    class       volScalarField;
    location    "1";
    object      p;
}
// * * * * * * * * * * * * * * * * * * * * * * * * * * * * * * * * * * * * * //

dimensions      [1 -1 -2 0 0 0 0];

internalField   nonuniform List<scalar> 
1800
(
1
1
1
1
1
1
1
1
1
1
1
1
1
1
1
1
1
1
1
1
1
1.00001
1.00043
1.00882
1.08623
1.41999
2.06344
2.64735
3.13953
3.46387
3.59267
3.53062
3.44495
3.38715
3.36818
3.31637
3.2754
3.25919
3.2483
3.24724
3.25594
3.27768
3.29324
3.28591
3.28131
3.28774
3.28424
3.27521
3.26272
3.25587
3.26471
3.32212
3.44138
3.53187
3.54818
3.54859
3.54851
3.54718
3.54615
3.54617
1
1
1
1
1
1
1
1
1
1
1
1
1
1
1
1
1
1
1
1
1.00001
1.00036
1.00794
1.0775
1.31874
1.70515
1.95795
2.26889
2.5547
2.79944
3.02747
3.14454
3.25056
3.31821
3.33075
3.31131
3.27626
3.25306
3.23711
3.23512
3.2445
3.26529
3.28586
3.28981
3.28689
3.28139
3.28288
3.28712
3.28958
3.29546
3.31479
3.36709
3.4606
3.54271
3.57161
3.57505
3.57507
3.5742
3.57317
3.57323
1
1
1
1
1
1
1
1
1
1
1
1
1
1
1
1
1
1
1
1
1.00031
1.00647
1.07533
1.31407
1.69577
1.95805
1.97183
1.99945
2.08261
2.2772
2.57706
2.93342
3.14767
3.23048
3.25237
3.25571
3.24663
3.23556
3.23464
3.24483
3.26271
3.28861
3.31122
3.32207
3.31237
3.30209
3.30143
3.30152
3.3038
3.3196
3.36261
3.43267
3.50528
3.56126
3.59673
3.60784
3.60835
3.60794
3.60726
3.60427
1
1
1
1
1
1
1
1
1
1
1
1
1
1
1
1
1
1
1
1.00015
1.00513
1.05806
1.31667
1.6978
1.98531
1.98263
1.95073
1.93984
1.94327
1.98375
2.08307
2.303
2.58525
2.8279
3.0107
3.13492
3.20441
3.22597
3.24445
3.2648
3.27621
3.29528
3.31349
3.32326
3.31327
3.31344
3.32258
3.33918
3.36409
3.40281
3.46842
3.53427
3.58146
3.61823
3.65132
3.66754
3.66934
3.66924
3.66897
3.6616
1
1
1
1
1
1
1
1
1
1
1
1
1
1
1
1
1
1
1.00013
1.00302
1.04352
1.27179
1.64767
1.96826
2.04768
2.02424
1.98095
1.96475
1.95981
1.94454
1.93956
1.96435
2.05369
2.23346
2.48169
2.74031
2.9616
3.11539
3.20431
3.24981
3.26742
3.28052
3.29417
3.30338
3.30358
3.30664
3.31669
3.33648
3.36335
3.40942
3.46429
3.51751
3.55251
3.58061
3.61435
3.63697
3.64013
3.64007
3.63989
3.62483
1
1
1
1
1
1
1
1
1
1
1
1
1
1
1
1
1
1.00007
1.00227
1.03294
1.20933
1.62787
1.96807
2.05787
2.05205
2.01867
1.9878
1.97659
1.97009
1.95186
1.92354
1.91156
1.90732
1.92474
1.98688
2.12912
2.34287
2.56871
2.75728
2.89362
3.00565
3.07206
3.10711
3.14264
3.18538
3.21704
3.2425
3.27917
3.32844
3.38222
3.43065
3.46245
3.47722
3.4893
3.51332
3.54199
3.55082
3.55111
3.55102
3.53967
1
1
1
1
1
1
1
1
1
1
1
1
1
1
1
1
1.00004
1.00138
1.02359
1.18625
1.57673
1.9069
2.06392
2.0664
2.05065
2.01678
1.99054
1.98075
1.97462
1.95999
1.93699
1.92227
1.91518
1.90781
1.90184
1.91205
1.95273
2.02703
2.12894
2.25929
2.41119
2.56608
2.71142
2.83525
2.9214
2.99582
3.08012
3.17974
3.27587
3.34854
3.38826
3.39723
3.39461
3.39385
3.40137
3.42927
3.44525
3.44629
3.44624
3.44649
1
1
1
1
1
1
1
1
1
1
1
1
1
1
1
1.00002
1.00082
1.01508
1.14748
1.51189
1.94525
2.08668
2.08105
2.06879
2.04713
2.01458
1.99188
1.98291
1.97637
1.96406
1.94383
1.92804
1.91958
1.91185
1.90578
1.89926
1.90405
1.90534
1.90128
1.9112
1.94174
2.00254
2.07982
2.16721
2.2633
2.36663
2.46824
2.56402
2.63168
2.64954
2.63669
2.60526
2.58433
2.57939
2.58675
2.61462
2.62984
2.63107
2.63109
2.65454
1
1
1
1
1
1
1
1
1
1
1
1
1
1
1.00001
1.00043
1.01061
1.10033
1.46018
1.89044
2.11925
2.12055
2.08207
2.04504
2.02747
2.00787
1.98991
1.98266
1.97601
1.96539
1.94934
1.93328
1.92389
1.91693
1.91226
1.90893
1.90305
1.90076
1.89747
1.89493
1.90134
1.90625
1.90125
1.90182
1.91054
1.92864
1.9514
1.97169
1.9819
1.98293
1.97765
1.96998
1.96659
1.96864
1.9821
2.00402
2.01604
2.01741
2.01741
2.02343
1
1
1
1
1
1
1
1
1
1
1
1
1
1
1.00032
1.00634
1.07873
1.38019
1.80343
2.09018
2.15884
2.14476
2.09593
2.04142
2.02222
2.0066
1.99073
1.98114
1.97449
1.96627
1.95364
1.93779
1.92779
1.92127
1.91735
1.9138
1.9085
1.90378
1.89795
1.89393
1.90011
1.90075
1.89706
1.89759
1.89858
1.88958
1.88147
1.87782
1.87828
1.88464
1.89421
1.8996
1.90123
1.9045
1.91494
1.93402
1.94656
1.94829
1.9483
1.94853
1
1
1
1
1
1
1
1
1
1
1
1
1
1.00014
1.005
1.05477
1.31968
1.77464
2.08314
2.15681
2.15681
2.1425
2.09372
2.04104
2.02211
2.00848
1.99489
1.98418
1.97583
1.96736
1.9565
1.94131
1.93046
1.92395
1.92003
1.91698
1.91247
1.90492
1.89887
1.89532
1.89991
1.89938
1.897
1.89888
1.90124
1.89857
1.89507
1.8891
1.8817
1.87986
1.8825
1.89184
1.90086
1.90691
1.9161
1.93252
1.94488
1.9469
1.94693
1.94758
1
1
1
1
1
1
1
1
1
1
1
1
1.00011
1.00286
1.043
1.27527
1.6936
2.01234
2.16725
2.18164
2.17297
2.14391
2.08807
2.04198
2.02641
2.01114
1.99547
1.98438
1.97438
1.96598
1.95797
1.94496
1.93152
1.92452
1.92071
1.91928
1.91841
1.91008
1.90103
1.8966
1.89448
1.89139
1.88775
1.88968
1.89827
1.90453
1.90624
1.90522
1.90229
1.89669
1.89377
1.8953
1.90604
1.91885
1.9321
1.94683
1.95734
1.95954
1.95959
1.9601
1
1
1
1
1
1
1
1
1
1
1
1.00007
1.0022
1.03083
1.2178
1.67203
2.01028
2.1339
2.17739
2.17968
2.17147
2.14055
2.08613
2.05242
2.03527
2.01613
1.99932
1.98373
1.97095
1.96352
1.9581
1.94822
1.93503
1.9261
1.92169
1.92093
1.92211
1.91758
1.90939
1.9038
1.90215
1.89695
1.88934
1.88212
1.87937
1.88435
1.8954
1.90695
1.91358
1.91441
1.91237
1.90955
1.90916
1.91684
1.93446
1.95339
1.96208
1.96319
1.96322
1.96269
1
1
1
1
1
1
1
1
1
1
1.00003
1.00125
1.02322
1.16906
1.63191
1.9595
2.07513
2.14111
2.17314
2.17235
2.1609
2.12689
2.08616
2.06553
2.04468
2.0215
2.00295
1.98418
1.96985
1.96343
1.9568
1.9505
1.93743
1.9274
1.92298
1.92147
1.92064
1.91773
1.91374
1.91176
1.90696
1.90588
1.9044
1.89793
1.88761
1.88139
1.88036
1.88516
1.89258
1.89959
1.90382
1.90503
1.90586
1.91062
1.92426
1.94302
1.95147
1.95222
1.95223
1.9519
1
1
1
1
1
1
1
1
1
1.00002
1.00058
1.01485
1.13533
1.52066
1.97499
2.0993
2.14896
2.17103
2.1692
2.16397
2.14611
2.11183
2.09289
2.0772
2.05288
2.02647
2.00417
1.97901
1.96662
1.96128
1.95939
1.95715
1.94316
1.93238
1.92495
1.92069
1.91872
1.91813
1.91642
1.91127
1.90141
1.89868
1.90124
1.90369
1.90065
1.89516
1.89173
1.89006
1.89024
1.89239
1.8958
1.89963
1.90442
1.91279
1.92788
1.945
1.95164
1.95214
1.95214
1.95237
1
1
1
1
1
1
1
1
1.00001
1.00047
1.00892
1.09901
1.45682
1.96832
2.05625
2.10175
2.14051
2.15838
2.15976
2.15455
2.13259
2.10706
2.09822
2.08357
2.05805
2.02892
1.99644
1.97923
1.97153
1.96685
1.96419
1.96084
1.94768
1.93575
1.92635
1.91861
1.91509
1.91839
1.92145
1.91727
1.90496
1.89658
1.89769
1.89896
1.89803
1.89723
1.89708
1.89734
1.89779
1.89873
1.9004
1.90287
1.90747
1.91744
1.93499
1.95117
1.95583
1.95606
1.95606
1.95614
1
1
1
1
1
1
1
1.00001
1.00026
1.00759
1.07563
1.37635
1.86847
2.14086
2.14371
2.14268
2.14467
2.14751
2.14654
2.14036
2.12356
2.10891
2.10284
2.08877
2.0618
2.02347
1.99429
1.98269
1.97571
1.97168
1.9681
1.96259
1.95093
1.93804
1.92679
1.91739
1.91295
1.9173
1.9242
1.92306
1.90944
1.90137
1.90107
1.90015
1.89795
1.89625
1.89609
1.89648
1.89776
1.89973
1.90189
1.9047
1.90982
1.92055
1.9386
1.95284
1.95592
1.95602
1.95602
1.95598
1
1
1
1
1
1
1
1.00015
1.00467
1.0661
1.32387
1.79802
2.07472
2.16723
2.18275
2.1735
2.15016
2.13749
2.13199
2.12794
2.12145
2.11631
2.11013
2.0941
2.06334
2.01932
1.99739
1.98722
1.98094
1.97658
1.96961
1.9632
1.95359
1.9406
1.92761
1.9185
1.91594
1.91943
1.92433
1.92432
1.9111
1.90347
1.90335
1.90178
1.90038
1.89825
1.8973
1.89674
1.89716
1.89881
1.90109
1.90445
1.9109
1.92336
1.94159
1.95328
1.95513
1.95517
1.95516
1.95517
1
1
1
1
1
1
1.00006
1.00238
1.04423
1.3016
1.71464
2.1061
2.19033
2.18691
2.17576
2.15627
2.1364
2.12906
2.12589
2.12506
2.12732
2.12456
2.11479
2.09535
2.0598
2.01881
2.0006
1.99035
1.98497
1.97921
1.97088
1.9634
1.95452
1.94227
1.93086
1.9236
1.92189
1.92346
1.92397
1.92265
1.91347
1.90394
1.90479
1.90304
1.90138
1.89975
1.89943
1.89916
1.8992
1.90027
1.90247
1.90595
1.91331
1.92829
1.94664
1.95538
1.95633
1.95634
1.95634
1.95637
1
1
1
1
1
1.00003
1.00146
1.02368
1.23192
1.70835
2.01967
2.17726
2.19297
2.1736
2.14906
2.1376
2.13206
2.132
2.13181
2.12966
2.13144
2.12777
2.11439
2.09252
2.05922
2.02058
2.00361
1.99402
1.98789
1.97988
1.97103
1.96342
1.95357
1.93975
1.92677
1.92319
1.92559
1.92682
1.92529
1.9209
1.91458
1.9047
1.90504
1.90491
1.90211
1.9002
1.90007
1.90031
1.90035
1.90112
1.90281
1.90623
1.91463
1.93166
1.94863
1.95462
1.95504
1.95504
1.95504
1.95505
1
1
1
1
1.00002
1.00082
1.01851
1.15372
1.60513
2.03505
2.17832
2.19091
2.176
2.14892
2.13141
2.12941
2.13417
2.13645
2.13665
2.13213
2.12789
2.12685
2.11389
2.09036
2.05962
2.02509
2.00822
1.99812
1.98953
1.98007
1.97187
1.96177
1.95138
1.93984
1.92792
1.92678
1.9303
1.92912
1.92565
1.92054
1.91383
1.90566
1.90415
1.90637
1.90362
1.90134
1.90084
1.90138
1.90161
1.90198
1.90323
1.90762
1.91757
1.93479
1.95149
1.95595
1.95615
1.95615
1.95614
1.95614
1
1
1
1.00001
1.00051
1.01238
1.12422
1.51358
2.01072
2.14571
2.20328
2.1828
2.15661
2.13973
2.13253
2.13624
2.1416
2.13699
2.13092
2.12647
2.12694
2.12631
2.1135
2.09155
2.06372
2.03166
2.01361
2.00106
1.99041
1.98264
1.97334
1.96147
1.95045
1.93958
1.92745
1.93109
1.93638
1.93328
1.92645
1.92206
1.91426
1.90654
1.90369
1.90601
1.90552
1.90233
1.90128
1.9017
1.90194
1.90238
1.90429
1.90931
1.92057
1.93898
1.95318
1.95607
1.95615
1.95615
1.95615
1.95616
1
1
1
1.00016
1.00755
1.0974
1.42687
1.97239
2.18623
2.15647
2.15443
2.15242
2.14588
2.1469
2.14728
2.14556
2.13947
2.13288
2.13213
2.13117
2.13211
2.13029
2.11826
2.09757
2.06863
2.0374
2.01549
2.00137
1.99342
1.98547
1.97531
1.96199
1.94782
1.93354
1.92619
1.93407
1.94028
1.93747
1.92787
1.91909
1.9137
1.90762
1.90448
1.90462
1.90658
1.90343
1.90102
1.90122
1.90152
1.90222
1.90509
1.91178
1.92458
1.94229
1.95295
1.95448
1.95451
1.95451
1.95451
1.95453
1
1
1.00012
1.00303
1.06517
1.38018
1.85171
2.16101
2.20937
2.1846
2.15712
2.14888
2.14755
2.1492
2.14563
2.14145
2.13269
2.12785
2.131
2.13688
2.14259
2.13879
2.12367
2.09889
2.06932
2.04062
2.01777
2.00477
1.995
1.98713
1.97802
1.96487
1.9473
1.93239
1.93173
1.9398
1.94303
1.93881
1.92855
1.91777
1.91176
1.90903
1.90618
1.90498
1.90515
1.9048
1.90082
1.90058
1.90158
1.90277
1.90585
1.91361
1.92808
1.94506
1.95344
1.95454
1.95455
1.95455
1.95455
1.95457
1
1.00004
1.00262
1.0334
1.30118
1.79952
2.16347
2.20197
2.1952
2.16414
2.14249
2.14086
2.14463
2.13756
2.13291
2.12578
2.12439
2.12802
2.1371
2.14713
2.14668
2.13921
2.12402
2.09884
2.0693
2.04349
2.02313
2.0097
1.99888
1.98902
1.97849
1.96331
1.9446
1.9352
1.93809
1.94288
1.94377
1.93795
1.92638
1.91727
1.91112
1.90927
1.90846
1.90745
1.90541
1.90296
1.90008
1.89983
1.90162
1.90412
1.90807
1.91692
1.93256
1.94854
1.95438
1.95482
1.95482
1.95482
1.95482
1.95483
1
1.00093
1.02869
1.20461
1.70591
2.12949
2.24469
2.22968
2.18871
2.14805
2.12727
2.1266
2.13331
2.13035
2.12436
2.12387
2.12605
2.13532
2.14523
2.1482
2.14662
2.13901
2.12103
2.09633
2.07331
2.04944
2.02935
2.01454
2.00244
1.99126
1.97785
1.96048
1.9457
1.94207
1.94409
1.94605
1.94412
1.93614
1.92205
1.91529
1.91283
1.91135
1.91086
1.90991
1.90751
1.90158
1.89877
1.89941
1.9025
1.90598
1.91112
1.92141
1.93801
1.95184
1.95538
1.95553
1.95553
1.95553
1.95553
1.95553
1.00008
1.01376
1.16393
1.62474
2.06774
2.20371
2.22109
2.20933
2.17498
2.13581
2.1164
2.11863
2.12521
2.12737
2.12754
2.12982
2.13495
2.14237
2.14719
2.14676
2.14407
2.13481
2.11887
2.1005
2.0809
2.05739
2.03582
2.01763
2.00237
1.98731
1.97095
1.95841
1.95266
1.9516
1.94944
1.94564
1.94118
1.93193
1.91931
1.91496
1.91424
1.91415
1.91365
1.91189
1.90871
1.9025
1.89811
1.89793
1.90087
1.90706
1.91472
1.92666
1.94347
1.95413
1.9559
1.95594
1.95594
1.95594
1.95594
1.95594
1.00395
1.1135
1.50769
2.03275
2.2485
2.24319
2.22367
2.19361
2.15636
2.13834
2.12611
2.12241
2.1245
2.12786
2.13056
2.13501
2.13994
2.14495
2.14671
2.14486
2.14016
2.13259
2.12181
2.10803
2.08927
2.06558
2.04316
2.02164
2.00116
1.9834
1.96979
1.96337
1.96143
1.95963
1.95425
1.94486
1.93485
1.92602
1.91818
1.9161
1.91604
1.91644
1.91624
1.91361
1.90942
1.90334
1.89798
1.89702
1.89982
1.90821
1.91942
1.93333
1.94873
1.95553
1.95619
1.95619
1.95619
1.95619
1.95619
1.95619
1.06173
1.46
1.90576
2.14689
2.19184
2.19978
2.17925
2.14358
2.13007
2.13347
2.13446
2.13261
2.1312
2.12798
2.12991
2.13563
2.14308
2.14662
2.14538
2.14263
2.13864
2.13352
2.127
2.11649
2.09644
2.07167
2.04607
2.02
1.99618
1.98143
1.97449
1.97115
1.96663
1.95944
1.95185
1.94256
1.93201
1.92333
1.91854
1.91732
1.91757
1.91824
1.91829
1.91537
1.90818
1.90067
1.89808
1.89785
1.89951
1.90772
1.92315
1.94079
1.9534
1.95644
1.95656
1.95656
1.95656
1.95656
1.95656
1.95656
1.39045
1.99728
2.4351
2.4384
2.3487
2.26619
2.18577
2.1019
2.09421
2.11726
2.13528
2.13729
2.12877
2.12402
2.12749
2.13718
2.14542
2.14754
2.14619
2.14228
2.13861
2.13641
2.13271
2.12218
2.10393
2.08072
2.05427
2.0256
1.99924
1.98385
1.9812
1.97971
1.97183
1.95813
1.94776
1.94085
1.93244
1.92243
1.91863
1.91886
1.91986
1.92049
1.92003
1.91639
1.90717
1.89866
1.89583
1.89539
1.89787
1.9094
1.93225
1.951
1.95637
1.95676
1.95676
1.95676
1.95676
1.95676
1.95676
1.95675
)
;

boundaryField
{
    top
    {
        type            zeroGradient;
    }
    inlet
    {
        type            fixedValue;
        value           uniform 1;
    }
    outlet
    {
        type            zeroGradient;
    }
    bottom
    {
        type            symmetryPlane;
    }
    frontAndBack
    {
        type            empty;
    }
}


// ************************************************************************* //
