/*--------------------------------*- C++ -*----------------------------------*\
| =========                 |                                                 |
| \\      /  F ield         | OpenFOAM: The Open Source CFD Toolbox           |
|  \\    /   O peration     | Version:  2412                                  |
|   \\  /    A nd           | Website:  www.openfoam.com                      |
|    \\/     M anipulation  |                                                 |
\*---------------------------------------------------------------------------*/
FoamFile
{
    version     2.0;
    format      ascii;
    arch        "LSB;label=32;scalar=64";
    class       volScalarField;
    location    "1";
    object      rho;
}
// * * * * * * * * * * * * * * * * * * * * * * * * * * * * * * * * * * * * * //

dimensions      [1 -3 0 0 0 0 0];

internalField   nonuniform List<scalar> 
1800
(
1.40001
1.40001
1.40001
1.40001
1.40001
1.40001
1.40001
1.40001
1.40001
1.40001
1.40001
1.40001
1.40001
1.40001
1.40001
1.40001
1.40001
1.40001
1.40001
1.40001
1.40001
1.40001
1.40043
1.40876
1.48355
1.78618
2.32322
2.77723
3.13528
3.35992
3.44568
3.40298
3.34733
3.31116
3.29869
3.26196
3.23178
3.22048
3.21381
3.21364
3.22078
3.23647
3.24613
3.2391
3.2317
3.23007
3.22347
3.21496
3.20622
3.20231
3.20945
3.25063
3.33312
3.39507
3.40623
3.40651
3.40645
3.40554
3.40484
3.40486
1.40001
1.40001
1.40001
1.40001
1.40001
1.40001
1.40001
1.40001
1.40001
1.40001
1.40001
1.40001
1.40001
1.40001
1.40001
1.40001
1.40001
1.40001
1.40001
1.40001
1.40001
1.40037
1.40789
1.47546
1.69829
2.02842
2.23844
2.4853
2.70405
2.88816
3.05607
3.14042
3.21544
3.2637
3.2713
3.25723
3.23161
3.21514
3.20451
3.20413
3.21171
3.2271
3.24041
3.24016
3.23376
3.22386
3.21969
3.2208
3.22254
3.2274
3.24239
3.27992
3.34453
3.40052
3.4201
3.42243
3.42244
3.42184
3.42115
3.42114
1.40001
1.40001
1.40001
1.40001
1.40001
1.40001
1.40001
1.40001
1.40001
1.40001
1.40001
1.40001
1.40001
1.40001
1.40001
1.40001
1.40001
1.40001
1.40001
1.40001
1.40032
1.40644
1.47322
1.69386
2.02177
2.2348
2.24895
2.27217
2.33802
2.49021
2.71948
2.98022
3.13325
3.19274
3.20955
3.2131
3.20688
3.19979
3.1994
3.20762
3.22137
3.24014
3.25446
3.25736
3.24681
3.23405
3.22779
3.22486
3.22577
3.2378
3.27002
3.31983
3.36974
3.40767
3.43168
3.43923
3.43957
3.43929
3.43883
3.43668
1.40001
1.40001
1.40001
1.40001
1.40001
1.40001
1.40001
1.40001
1.40001
1.40001
1.40001
1.40001
1.40001
1.40001
1.40001
1.40001
1.40001
1.40001
1.40001
1.40016
1.40512
1.45681
1.6954
2.02334
2.25773
2.25594
2.2309
2.22246
2.22551
2.25864
2.33883
2.50951
2.72241
2.90127
3.03395
3.12329
3.17297
3.18896
3.20306
3.21845
3.22705
3.24047
3.25125
3.25341
3.24247
3.23848
3.23958
3.24682
3.26242
3.28991
3.3371
3.38382
3.41653
3.44168
3.46417
3.47507
3.47627
3.47619
3.47601
3.47112
1.40001
1.40001
1.40001
1.40001
1.40001
1.40001
1.40001
1.40001
1.40001
1.40001
1.40001
1.40001
1.40001
1.40001
1.40001
1.40001
1.40001
1.40001
1.40013
1.40302
1.44281
1.65614
1.98012
2.24301
2.30714
2.28837
2.25333
2.24065
2.23748
2.22603
2.22361
2.24415
2.31576
2.45611
2.64551
2.83859
2.99947
3.10911
3.17269
3.2055
3.21766
3.22589
3.2339
3.23614
3.23228
3.2309
3.23374
3.24413
3.26102
3.29282
3.33187
3.36989
3.39463
3.41409
3.43701
3.45223
3.45434
3.4543
3.45418
3.44417
1.40001
1.40001
1.40001
1.40001
1.40001
1.40001
1.40001
1.40001
1.40001
1.40001
1.40001
1.40001
1.40001
1.40001
1.40001
1.40001
1.40001
1.40007
1.40227
1.43246
1.5994
1.96444
2.24017
2.31377
2.30956
2.28281
2.25737
2.24876
2.24452
2.2313
2.20967
2.20094
2.19868
2.21303
2.26341
2.37638
2.54272
2.71421
2.8544
2.95411
3.03393
3.08001
3.10339
3.12557
3.15205
3.17089
3.18557
3.20829
3.24072
3.278
3.31296
3.33635
3.34734
3.35602
3.37248
3.39191
3.39789
3.39808
3.39802
3.39008
1.40001
1.40001
1.40001
1.40001
1.40001
1.40001
1.40001
1.40001
1.40001
1.40001
1.40001
1.40001
1.40001
1.40001
1.40001
1.40001
1.40004
1.40138
1.42334
1.57747
1.92187
2.19347
2.31768
2.31965
2.30715
2.27969
2.25828
2.25113
2.24737
2.23718
2.2199
2.20867
2.20355
2.19871
2.1953
2.20434
2.23901
2.30022
2.38126
2.48231
2.59793
2.71386
2.82028
2.90916
2.97007
3.02214
3.08019
3.14762
3.21232
3.26205
3.2903
3.29727
3.29646
3.29653
3.30203
3.32148
3.33252
3.33324
3.3332
3.33317
1.40001
1.40001
1.40001
1.40001
1.40001
1.40001
1.40001
1.40001
1.40001
1.40001
1.40001
1.40001
1.40001
1.40001
1.40001
1.40002
1.40082
1.41498
1.54183
1.86499
2.22155
2.33563
2.33106
2.32116
2.30357
2.27707
2.25865
2.25213
2.24808
2.23964
2.2245
2.21208
2.20542
2.20005
2.19693
2.19393
2.19938
2.20246
2.20074
2.20844
2.23236
2.28041
2.34032
2.40703
2.48057
2.55938
2.63595
2.70642
2.75474
2.76705
2.757
2.73357
2.7186
2.71542
2.72137
2.74258
2.754
2.75493
2.75494
2.77266
1.40001
1.40001
1.40001
1.40001
1.40001
1.40001
1.40001
1.40001
1.40001
1.40001
1.40001
1.40001
1.40001
1.40001
1.40002
1.40044
1.41054
1.49764
1.82163
2.17603
2.35957
2.36137
2.33145
2.30139
2.28677
2.27071
2.25617
2.25093
2.24674
2.23954
2.22765
2.21473
2.20682
2.20164
2.19953
2.19925
2.19732
2.19811
2.19676
2.1942
2.19898
2.20254
2.198
2.19741
2.20351
2.21717
2.23473
2.25044
2.25829
2.25974
2.25607
2.25032
2.24756
2.24917
2.26007
2.27793
2.28776
2.28888
2.28888
2.29369
1.40001
1.40001
1.40001
1.40001
1.40001
1.40001
1.40001
1.40001
1.40001
1.40001
1.40001
1.40001
1.40001
1.40001
1.40032
1.40632
1.47658
1.754
2.10781
2.33524
2.39149
2.38066
2.34201
2.29791
2.28191
2.26889
2.2559
2.24866
2.24415
2.23849
2.22907
2.21617
2.20735
2.20217
2.20034
2.19965
2.19811
2.19688
2.19344
2.18981
2.19451
2.19493
2.19129
2.19117
2.19167
2.18433
2.17746
2.17385
2.17345
2.17756
2.18592
2.19153
2.19325
2.19603
2.2043
2.21964
2.22997
2.23141
2.23142
2.23166
1.40001
1.40001
1.40001
1.40001
1.40001
1.40001
1.40001
1.40001
1.40001
1.40001
1.40001
1.40001
1.40001
1.40014
1.40498
1.4536
1.69862
2.08582
2.32922
2.38957
2.38991
2.37887
2.33976
2.297
2.28117
2.26964
2.25815
2.2495
2.24319
2.23696
2.22864
2.21632
2.20678
2.20114
2.19859
2.19752
2.19583
2.19166
2.18746
2.18437
2.18788
2.18741
2.18478
2.18577
2.18715
2.1851
2.18297
2.17863
2.17245
2.17067
2.17236
2.17995
2.18804
2.19344
2.2012
2.21448
2.22445
2.22609
2.22611
2.22661
1.40001
1.40001
1.40001
1.40001
1.40001
1.40001
1.40001
1.40001
1.40001
1.40001
1.40001
1.40001
1.40012
1.40286
1.4422
1.65877
2.01966
2.27456
2.39638
2.40941
2.40274
2.37989
2.33491
2.29689
2.28376
2.271
2.25744
2.24766
2.23934
2.23274
2.22652
2.21628
2.20528
2.19885
2.19525
2.19441
2.19447
2.18869
2.18141
2.1774
2.17556
2.17271
2.16946
2.17085
2.17793
2.18312
2.18437
2.18375
2.18226
2.17836
2.17593
2.17704
2.18587
2.19649
2.20729
2.21927
2.22773
2.2295
2.22954
2.22994
1.40001
1.40001
1.40001
1.40001
1.40001
1.40001
1.40001
1.40001
1.40001
1.40001
1.40001
1.40007
1.40221
1.43041
1.6063
2.00253
2.27634
2.36977
2.40523
2.40754
2.4014
2.37706
2.33282
2.30436
2.28961
2.27344
2.25874
2.24472
2.23349
2.22734
2.22329
2.21632
2.20671
2.19863
2.19348
2.1919
2.1921
2.18781
2.18039
2.1754
2.17391
2.16956
2.16379
2.15866
2.15646
2.16004
2.16922
2.17947
2.18544
2.18628
2.1847
2.18246
2.18208
2.18831
2.20274
2.21822
2.22531
2.22621
2.22623
2.22579
1.40001
1.40001
1.40001
1.40001
1.40001
1.40001
1.40001
1.40001
1.40001
1.40001
1.40003
1.40126
1.42297
1.56146
1.96781
2.2392
2.32803
2.37677
2.40185
2.40129
2.39233
2.36515
2.33152
2.31334
2.29524
2.27554
2.25958
2.24275
2.22949
2.2241
2.21961
2.21638
2.20848
2.19925
2.19374
2.1903
2.18667
2.18135
2.17646
2.17422
2.17012
2.16969
2.16892
2.16452
2.15731
2.15286
2.15213
2.15587
2.16199
2.16798
2.17168
2.17263
2.17312
2.17679
2.18787
2.20322
2.21015
2.21076
2.21076
2.21051
1.40001
1.40001
1.40001
1.40001
1.40001
1.40001
1.40001
1.40001
1.40001
1.40002
1.40059
1.41474
1.52993
1.87212
2.2473
2.34827
2.38537
2.40054
2.39864
2.39388
2.37911
2.3512
2.33448
2.32022
2.29922
2.27713
2.25838
2.23657
2.22455
2.22005
2.22049
2.22196
2.2148
2.20471
2.19578
2.18886
2.18199
2.17538
2.17085
2.16543
2.15708
2.15646
2.15978
2.16295
2.16136
2.15752
2.15506
2.15388
2.15417
2.15608
2.15885
2.16178
2.16541
2.17203
2.18426
2.19816
2.20355
2.20395
2.20395
2.20414
1.40001
1.40001
1.40001
1.40001
1.40001
1.40001
1.40001
1.40001
1.40001
1.40048
1.40887
1.49592
1.81699
2.2401
2.31053
2.3465
2.37687
2.3899
2.39033
2.38509
2.36633
2.34499
2.33614
2.3226
2.30076
2.27693
2.25036
2.23493
2.22787
2.22464
2.22486
2.22638
2.22095
2.21001
2.19861
2.1871
2.17613
2.16918
2.16637
2.1616
2.15112
2.14725
2.15053
2.15324
2.15308
2.15254
2.15254
2.15279
2.15314
2.15392
2.15534
2.15733
2.16096
2.16893
2.18309
2.19614
2.19988
2.20007
2.20007
2.20012
1.40001
1.40001
1.40001
1.40001
1.40001
1.40001
1.40001
1.40001
1.40027
1.40755
1.47371
1.74902
2.16148
2.37769
2.37721
2.37556
2.37693
2.37881
2.37762
2.37161
2.35731
2.34395
2.33757
2.32471
2.30212
2.27127
2.24764
2.23792
2.23244
2.23045
2.23048
2.23072
2.22591
2.21393
2.20039
2.18638
2.17176
2.16164
2.15951
2.15716
2.14563
2.14304
2.14674
2.14838
2.14738
2.14557
2.14518
2.14529
2.14616
2.14769
2.14948
2.15181
2.15597
2.1646
2.17913
2.19056
2.19303
2.19311
2.19311
2.19307
1.40001
1.40001
1.40001
1.40001
1.40001
1.40001
1.40001
1.40015
1.40466
1.46444
1.70288
2.10865
2.32633
2.39655
2.40687
2.39893
2.37887
2.36732
2.36272
2.35937
2.35347
2.34815
2.3422
2.3283
2.30287
2.26795
2.25105
2.24376
2.24043
2.23942
2.23691
2.23487
2.22908
2.2166
2.20137
2.18668
2.17109
2.15679
2.15127
2.14938
2.13817
2.13635
2.14163
2.14406
2.14403
2.14202
2.14081
2.14004
2.14011
2.14115
2.14285
2.14555
2.15085
2.16097
2.17556
2.18488
2.18636
2.18639
2.18639
2.18639
1.40001
1.40001
1.40001
1.40001
1.40001
1.40001
1.40007
1.40238
1.44336
1.68114
2.03811
2.35561
2.41316
2.40985
2.39965
2.38222
2.36481
2.35829
2.3553
2.35443
2.3561
2.35396
2.34588
2.32999
2.30162
2.26983
2.25729
2.25158
2.25038
2.24847
2.24331
2.23727
2.22921
2.21579
2.20146
2.18721
2.17137
2.1546
2.1445
2.14108
2.13285
2.12883
2.13545
2.13956
2.14032
2.13907
2.13849
2.13789
2.13758
2.13805
2.13955
2.14226
2.14827
2.1604
2.17505
2.18201
2.18276
2.18277
2.18277
2.1828
1.40001
1.40001
1.40001
1.40001
1.40001
1.40004
1.40146
1.42342
1.6191
2.0265
2.28303
2.40522
2.41261
2.39649
2.37507
2.36392
2.35782
2.3575
2.35763
2.35681
2.35879
2.35661
2.34736
2.33137
2.3059
2.2763
2.26544
2.26124
2.2593
2.25404
2.24599
2.23725
2.22534
2.20842
2.19083
2.17914
2.16822
2.15373
2.14188
2.13527
2.12888
2.12307
2.12873
2.13534
2.13711
2.13631
2.13605
2.13598
2.13569
2.13592
2.1369
2.1395
2.14631
2.16003
2.17359
2.17836
2.17869
2.17869
2.17869
2.1787
1.40001
1.40001
1.40001
1.40001
1.40002
1.40083
1.41834
1.54752
1.94282
2.28783
2.40173
2.40813
2.39563
2.3732
2.35839
2.35524
2.35798
2.35965
2.36072
2.35957
2.35827
2.35908
2.35142
2.33535
2.31229
2.28561
2.27449
2.26953
2.26412
2.25594
2.24628
2.23332
2.21787
2.19945
2.18057
2.17159
2.16526
2.15346
2.1412
2.13291
2.12567
2.11968
2.12244
2.13069
2.13451
2.13492
2.13465
2.13501
2.13498
2.13495
2.13549
2.13866
2.14662
2.16058
2.17395
2.17749
2.17764
2.17764
2.17763
2.17763
1.40001
1.40001
1.40001
1.40001
1.40052
1.41231
1.5198
1.86799
2.27089
2.3723
2.41465
2.39783
2.37654
2.36339
2.35771
2.36047
2.36472
2.36222
2.35997
2.35978
2.36312
2.36442
2.35662
2.34137
2.32006
2.29466
2.28221
2.27405
2.26562
2.25648
2.24426
2.22756
2.20902
2.18863
2.16879
2.16547
2.1642
2.15562
2.14252
2.13368
2.12511
2.11822
2.11832
2.12505
2.13147
2.13348
2.1337
2.13415
2.13431
2.13447
2.13548
2.13892
2.14781
2.1628
2.17429
2.17657
2.17664
2.17664
2.17663
2.17664
1.40001
1.40001
1.40001
1.40017
1.40751
1.49455
1.79158
2.24499
2.40145
2.3747
2.37246
2.37086
2.366
2.36807
2.37006
2.37114
2.36878
2.36586
2.36798
2.37028
2.3732
2.37287
2.36464
2.34907
2.32588
2.30104
2.28527
2.2744
2.26517
2.25429
2.23958
2.22035
2.19822
2.17471
2.15998
2.1611
2.16299
2.15789
2.14509
2.13256
2.12472
2.11834
2.11669
2.11976
2.12734
2.13115
2.13228
2.13306
2.13348
2.13405
2.13599
2.14069
2.15057
2.16488
2.17361
2.17485
2.17488
2.17488
2.17488
2.1749
1.40001
1.40001
1.40012
1.40303
1.4636
1.75
2.14178
2.3857
2.41457
2.3935
2.3723
2.36727
2.36746
2.37229
2.37527
2.37629
2.3718
2.36909
2.37289
2.3797
2.38504
2.38218
2.37057
2.35086
2.3267
2.30408
2.28704
2.27367
2.26138
2.24881
2.23379
2.2145
2.19024
2.16785
2.15975
2.16156
2.16259
2.15793
2.14636
2.13347
2.12444
2.11979
2.11698
2.11744
2.12162
2.12791
2.13004
2.13181
2.13319
2.13444
2.13682
2.14238
2.15336
2.1669
2.17373
2.17464
2.17466
2.17466
2.17466
2.17467
1.40001
1.40004
1.40263
1.43301
1.68085
2.09434
2.37921
2.40783
2.40268
2.37861
2.3645
2.36622
2.37281
2.37237
2.37474
2.37156
2.37032
2.37331
2.38085
2.3891
2.38885
2.38309
2.371
2.35038
2.32578
2.30531
2.28812
2.2728
2.2584
2.24292
2.22615
2.20573
2.18224
2.16659
2.16226
2.1621
2.16158
2.15575
2.14463
2.13458
2.12626
2.12102
2.11886
2.11813
2.11848
2.12166
2.12588
2.12982
2.13276
2.13552
2.13896
2.14547
2.15717
2.16974
2.17446
2.17482
2.17483
2.17483
2.17483
2.17483
1.40001
1.40094
1.4284
1.59409
2.02054
2.34629
2.43805
2.42764
2.39915
2.3729
2.36438
2.36761
2.37627
2.37633
2.37345
2.37313
2.37412
2.37963
2.38662
2.38896
2.38787
2.38201
2.36774
2.34734
2.32784
2.30832
2.28887
2.27137
2.25494
2.23795
2.2188
2.19727
2.17864
2.16974
2.16603
2.16401
2.16082
2.15284
2.14065
2.13391
2.12987
2.12478
2.12144
2.11994
2.11825
2.11673
2.12026
2.1266
2.13237
2.1366
2.14162
2.14957
2.16183
2.17252
2.17536
2.17548
2.17548
2.17548
2.17548
2.17548
1.40009
1.41379
1.55596
1.94946
2.30031
2.40392
2.42356
2.41837
2.39886
2.3761
2.36826
2.37099
2.37657
2.37757
2.37649
2.37669
2.37876
2.38266
2.386
2.38585
2.3842
2.3775
2.36505
2.34988
2.3332
2.31277
2.28953
2.26794
2.24828
2.22851
2.20778
2.19085
2.18071
2.17555
2.16994
2.16336
2.15731
2.14822
2.13795
2.13402
2.13232
2.12939
2.12522
2.12192
2.11867
2.11485
2.11563
2.12121
2.12857
2.13628
2.14432
2.15414
2.16646
2.17446
2.17585
2.17589
2.17589
2.17589
2.17589
2.17589
1.40419
1.50869
1.84844
2.25877
2.43951
2.44144
2.43488
2.42233
2.40022
2.38944
2.38247
2.37709
2.37578
2.37533
2.37503
2.37685
2.37957
2.38299
2.38434
2.3831
2.3802
2.37502
2.36676
2.35535
2.33891
2.31625
2.29077
2.265
2.24068
2.21977
2.20253
2.19121
2.18497
2.18046
2.17346
2.16284
2.15178
2.14281
2.13641
2.13477
2.13426
2.13297
2.12963
2.12444
2.11947
2.11441
2.11263
2.11593
2.1237
2.13489
2.14715
2.15947
2.17074
2.17565
2.17616
2.17616
2.17616
2.17616
2.17616
2.17616
1.46386
1.79347
2.14804
2.3506
2.40934
2.43191
2.42479
2.39815
2.38536
2.38788
2.38633
2.37965
2.37342
2.36838
2.36926
2.37435
2.38131
2.38437
2.38343
2.38149
2.37894
2.37538
2.37022
2.36083
2.34229
2.31683
2.28791
2.25763
2.23031
2.21315
2.20334
2.19583
2.18796
2.1791
2.17065
2.1607
2.14935
2.14022
2.13593
2.13515
2.13532
2.1352
2.13333
2.12795
2.11957
2.11225
2.11125
2.11303
2.11849
2.1308
2.14827
2.16491
2.17433
2.17642
2.1765
2.1765
2.1765
2.1765
2.1765
2.1765
1.69831
2.16483
2.589
2.62799
2.57896
2.51765
2.44797
2.36025
2.34815
2.36491
2.37813
2.37713
2.3673
2.36225
2.36555
2.37537
2.38494
2.38742
2.38625
2.38254
2.37914
2.37712
2.37348
2.36294
2.34399
2.31839
2.28866
2.25611
2.22651
2.20966
2.20595
2.2024
2.19264
2.17777
2.16677
2.15907
2.14963
2.13881
2.13511
2.13536
2.13633
2.13675
2.13578
2.13097
2.12051
2.11145
2.10891
2.10897
2.11275
2.12695
2.15221
2.17151
2.17641
2.1767
2.1767
2.1767
2.1767
2.1767
2.1767
2.1767
)
;

boundaryField
{
    top
    {
        type            calculated;
        value           nonuniform List<scalar> 
60
(
1.54676
2.2218
2.70883
2.71251
2.61273
2.52094
2.43148
2.33818
2.32963
2.35527
2.37532
2.37755
2.36807
2.36278
2.36665
2.37743
2.38659
2.38895
2.38745
2.3831
2.37902
2.37658
2.37246
2.36074
2.34044
2.31463
2.2852
2.25331
2.22398
2.20686
2.20391
2.20226
2.19348
2.17825
2.16672
2.15903
2.14968
2.13854
2.13431
2.13457
2.13567
2.13638
2.13587
2.13181
2.12156
2.1121
2.10895
2.10846
2.11121
2.12404
2.14946
2.17031
2.1763
2.17672
2.17672
2.17672
2.17672
2.17672
2.17672
2.17672
)
;
    }
    inlet
    {
        type            calculated;
        value           uniform 1.40001;
    }
    outlet
    {
        type            calculated;
        value           nonuniform List<scalar> 
30
(
3.40486
3.42114
3.43668
3.47112
3.44417
3.39008
3.33317
2.77266
2.29369
2.23166
2.22661
2.22994
2.22579
2.21051
2.20414
2.20012
2.19307
2.18639
2.1828
2.1787
2.17763
2.17664
2.1749
2.17467
2.17483
2.17548
2.17589
2.17616
2.1765
2.1767
)
;
    }
    bottom
    {
        type            symmetryPlane;
    }
    frontAndBack
    {
        type            empty;
    }
}


// ************************************************************************* //
