/*--------------------------------*- C++ -*----------------------------------*\
| =========                 |                                                 |
| \\      /  F ield         | OpenFOAM: The Open Source CFD Toolbox           |
|  \\    /   O peration     | Version:  2412                                  |
|   \\  /    A nd           | Website:  www.openfoam.com                      |
|    \\/     M anipulation  |                                                 |
\*---------------------------------------------------------------------------*/
FoamFile
{
    version     2.0;
    format      ascii;
    arch        "LSB;label=32;scalar=64";
    class       volScalarField;
    location    "1";
    object      T;
}
// * * * * * * * * * * * * * * * * * * * * * * * * * * * * * * * * * * * * * //

dimensions      [0 0 0 1 0 0 0];

internalField   nonuniform List<scalar> 
1800
(
1
1
1
1
1
1
1
1
1
1
1
1
1
1
1
1
1
1
1
1
1
1
1.00012
1.00255
1.02505
1.11298
1.24346
1.33453
1.40191
1.44332
1.45973
1.45251
1.44083
1.43214
1.4295
1.42336
1.4189
1.41683
1.41503
1.41464
1.41529
1.41783
1.42032
1.42023
1.4215
1.425
1.4264
1.42624
1.42468
1.42342
1.42411
1.43079
1.44548
1.45642
1.45835
1.4584
1.45839
1.45823
1.45811
1.45811
1
1
1
1
1
1
1
1
1
1
1
1
1
1
1
1
1
1
1
1
1
1.0001
1.0023
1.0224
1.08712
1.17688
1.22458
1.2781
1.32268
1.357
1.3869
1.40184
1.4153
1.42338
1.42545
1.42325
1.41935
1.41651
1.41425
1.41355
1.4143
1.41657
1.41964
1.42145
1.42301
1.42499
1.42748
1.42883
1.42913
1.42953
1.43127
1.43721
1.44859
1.45855
1.46203
1.46244
1.46244
1.46234
1.46222
1.46224
1
1
1
1
1
1
1
1
1
1
1
1
1
1
1
1
1
1
1
1
1.00009
1.00186
1.02189
1.0861
1.17426
1.22663
1.2275
1.23196
1.24707
1.28025
1.32669
1.37802
1.40645
1.41656
1.41869
1.41857
1.41736
1.41565
1.41542
1.41625
1.41797
1.42095
1.42442
1.42782
1.42827
1.42946
1.43194
1.43328
1.43387
1.43538
1.43965
1.44759
1.45632
1.4631
1.46734
1.46864
1.4687
1.46866
1.46857
1.46828
1
1
1
1
1
1
1
1
1
1
1
1
1
1
1
1
1
1
1
1.00004
1.00148
1.0168
1.08727
1.17476
1.23108
1.2304
1.22419
1.22197
1.22246
1.22962
1.24691
1.2848
1.32947
1.3646
1.38928
1.40522
1.41388
1.41625
1.4181
1.42017
1.42133
1.42368
1.42681
1.43006
1.43058
1.43241
1.43587
1.43983
1.44363
1.44805
1.4551
1.46225
1.46759
1.47182
1.47564
1.47754
1.47776
1.47775
1.47772
1.47683
1
1
1
1
1
1
1
1
1
1
1
1
1
1
1
1
1
1
1.00004
1.00087
1.01256
1.0751
1.16495
1.22852
1.24256
1.23841
1.23077
1.22762
1.22627
1.22297
1.22117
1.22545
1.24157
1.27309
1.31331
1.35153
1.38233
1.40283
1.41396
1.41935
1.42166
1.42372
1.4261
1.4291
1.43088
1.43282
1.43592
1.43986
1.44394
1.44958
1.45565
1.46133
1.46512
1.46829
1.47224
1.47492
1.4753
1.4753
1.47528
1.47344
1
1
1
1
1
1
1
1
1
1
1
1
1
1
1
1
1
1.00002
1.00065
1.00954
1.05857
1.16014
1.22995
1.24517
1.24391
1.23801
1.23282
1.23056
1.22883
1.22467
1.21872
1.21593
1.21448
1.21762
1.22896
1.25433
1.28997
1.32496
1.35237
1.37134
1.38695
1.39639
1.40168
1.40765
1.41481
1.42038
1.42502
1.43093
1.4379
1.44452
1.44974
1.45292
1.45433
1.45561
1.45847
1.46195
1.46302
1.46305
1.46304
1.46178
1
1
1
1
1
1
1
1
1
1
1
1
1
1
1
1
1.00001
1.00039
1.00681
1.0528
1.14858
1.2171
1.24672
1.24716
1.24436
1.23855
1.23402
1.23185
1.23009
1.22654
1.22158
1.21846
1.21679
1.21478
1.21286
1.21437
1.221
1.23373
1.25166
1.27423
1.29937
1.32377
1.34597
1.36444
1.37707
1.38781
1.39997
1.41429
1.4277
1.43712
1.44169
1.44245
1.44169
1.44134
1.44212
1.44544
1.44736
1.44749
1.44748
1.4476
1
1
1
1
1
1
1
1
1
1
1
1
1
1
1
1.00001
1.00023
1.00434
1.04193
1.13494
1.22588
1.25078
1.24985
1.24779
1.24415
1.23862
1.23465
1.23265
1.2308
1.22774
1.22336
1.22024
1.21855
1.21661
1.21447
1.21196
1.21202
1.21114
1.2095
1.21157
1.21775
1.22941
1.24417
1.26052
1.27738
1.29457
1.31093
1.32635
1.33746
1.34055
1.33891
1.33429
1.33086
1.32987
1.33075
1.33469
1.33688
1.33706
1.33706
1.34036
1
1
1
1
1
1
1
1
1
1
1
1
1
1
1
1.00012
1.00306
1.02859
1.12221
1.21626
1.25742
1.25723
1.25026
1.24406
1.24125
1.23795
1.23478
1.23315
1.2313
1.22863
1.22509
1.22209
1.22051
1.21896
1.21716
1.21519
1.21252
1.21062
1.20927
1.20906
1.21051
1.21167
1.21099
1.21168
1.21387
1.21781
1.22251
1.22659
1.22866
1.22851
1.22723
1.2256
1.22499
1.22539
1.22782
1.23166
1.23372
1.23396
1.23396
1.23505
1
1
1
1
1
1
1
1
1
1
1
1
1
1
1.00009
1.00182
1.02279
1.10164
1.19783
1.25309
1.26381
1.26128
1.2529
1.24374
1.24068
1.23816
1.23544
1.23345
1.23178
1.22975
1.22702
1.22415
1.22269
1.22143
1.21995
1.21807
1.21555
1.21322
1.2114
1.21084
1.21219
1.21237
1.21202
1.21243
1.21278
1.21109
1.2097
1.20936
1.20988
1.21168
1.21318
1.21352
1.2136
1.21415
1.21623
1.21985
1.22208
1.22237
1.22237
1.22239
1
1
1
1
1
1
1
1
1
1
1
1
1
1.00004
1.00144
1.01589
1.08768
1.19114
1.2521
1.26364
1.26345
1.2609
1.25279
1.244
1.24101
1.23891
1.23679
1.23488
1.23314
1.23128
1.22905
1.22629
1.22471
1.2237
1.22263
1.22128
1.21934
1.21684
1.2153
1.21475
1.21573
1.21566
1.21559
1.21625
1.21699
1.21642
1.21537
1.21395
1.21264
1.21245
1.2132
1.21497
1.21626
1.21712
1.21868
1.22175
1.22405
1.22442
1.22443
1.22456
1
1
1
1
1
1
1
1
1
1
1
1
1.00003
1.00082
1.01248
1.07633
1.17399
1.2386
1.26614
1.26765
1.26612
1.26119
1.252
1.24463
1.24224
1.23981
1.23754
1.23602
1.23435
1.23273
1.23114
1.22861
1.22622
1.22534
1.22492
1.22447
1.22388
1.22179
1.22006
1.21945
1.21912
1.21874
1.21821
1.21867
1.22024
1.22135
1.22174
1.22144
1.22039
1.21898
1.21846
1.21883
1.22078
1.22304
1.22546
1.22814
1.23008
1.23049
1.2305
1.23059
1
1
1
1
1
1
1
1
1
1
1
1.00002
1.00063
1.00892
1.06139
1.16895
1.23637
1.26066
1.26739
1.2675
1.26596
1.2607
1.25196
1.24694
1.24448
1.24155
1.23921
1.23723
1.23544
1.23418
1.23301
1.23065
1.22764
1.22647
1.22653
1.22693
1.22757
1.22708
1.226
1.22521
1.22499
1.22409
1.22243
1.22065
1.22011
1.22132
1.22328
1.22495
1.22585
1.22591
1.22549
1.22494
1.2249
1.22633
1.2295
1.23286
1.2344
1.2346
1.23461
1.23452
1
1
1
1
1
1
1
1
1
1
1.00001
1.00036
1.0067
1.04818
1.16103
1.22513
1.24792
1.26119
1.26669
1.26653
1.26457
1.25897
1.25267
1.25003
1.24718
1.24371
1.241
1.2386
1.23696
1.23592
1.23424
1.23206
1.22818
1.22695
1.22721
1.22817
1.22968
1.23081
1.23101
1.23101
1.23023
1.22978
1.22926
1.22757
1.22498
1.22347
1.22321
1.22421
1.22555
1.22668
1.22732
1.22756
1.22783
1.22882
1.23132
1.23467
1.23615
1.23628
1.23628
1.23622
1
1
1
1
1
1
1
1
1
1
1.00017
1.00429
1.03891
1.13718
1.23037
1.25158
1.26125
1.26615
1.26609
1.26555
1.2629
1.25748
1.25512
1.25337
1.25001
1.2459
1.24241
1.23878
1.23768
1.23682
1.23538
1.23316
1.2283
1.22707
1.22733
1.22848
1.23109
1.23444
1.23592
1.23568
1.23407
1.23265
1.23241
1.2322
1.23113
1.22977
1.22894
1.22853
1.22848
1.22878
1.22941
1.23023
1.23127
1.23291
1.23568
1.23876
1.23996
1.24004
1.24004
1.24009
1
1
1
1
1
1
1
1
1
1.00014
1.00257
1.02854
1.12249
1.23015
1.24593
1.25398
1.26079
1.26438
1.26496
1.26468
1.26171
1.25796
1.25742
1.25592
1.25232
1.24751
1.24203
1.23983
1.23892
1.23778
1.23598
1.23302
1.22775
1.22626
1.22664
1.22814
1.23206
1.23815
1.24173
1.24176
1.2398
1.23657
1.23541
1.23468
1.23416
1.23395
1.23386
1.23388
1.23397
1.23413
1.23441
1.23487
1.23578
1.23768
1.2409
1.24384
1.24469
1.24473
1.24473
1.24475
1
1
1
1
1
1
1
1
1.00007
1.00219
1.02183
1.1017
1.21022
1.26055
1.26249
1.26276
1.2632
1.26388
1.26394
1.26349
1.26118
1.25962
1.25942
1.25791
1.25386
1.24726
1.2422
1.24034
1.23901
1.23758
1.23532
1.23172
1.22705
1.22554
1.22592
1.22776
1.23317
1.24176
1.24745
1.24807
1.24589
1.24213
1.23979
1.23824
1.23739
1.23732
1.23744
1.23763
1.23797
1.23837
1.23874
1.23924
1.24017
1.24216
1.24547
1.24807
1.24864
1.24866
1.24866
1.24865
1
1
1
1
1
1
1
1.00004
1.00134
1.01919
1.08841
1.19377
1.24858
1.26604
1.26964
1.26845
1.2654
1.26409
1.26329
1.26268
1.26198
1.26178
1.26129
1.25918
1.25438
1.24652
1.24225
1.23993
1.23786
1.23569
1.23271
1.22982
1.22698
1.22569
1.2259
1.22831
1.23547
1.24593
1.25232
1.25341
1.25132
1.24739
1.24424
1.2418
1.24091
1.24068
1.24076
1.24084
1.24107
1.24155
1.24205
1.24268
1.24382
1.24607
1.24944
1.2516
1.25194
1.25195
1.25195
1.25195
1
1
1
1
1
1
1.00002
1.00068
1.01286
1.08393
1.17781
1.25172
1.27073
1.27049
1.26938
1.26721
1.26478
1.26392
1.26364
1.26361
1.26406
1.26357
1.26209
1.25902
1.25291
1.24517
1.2408
1.23758
1.23489
1.23235
1.22998
1.22862
1.2275
1.22719
1.22792
1.23127
1.23915
1.24981
1.25603
1.25718
1.256
1.25211
1.24878
1.24524
1.24371
1.24337
1.2435
1.24367
1.24387
1.2443
1.24488
1.24557
1.24689
1.24959
1.25298
1.2546
1.25477
1.25478
1.25478
1.25478
1
1
1
1
1
1.00001
1.00042
1.00685
1.06522
1.18021
1.23851
1.26732
1.27255
1.26979
1.26678
1.26597
1.26595
1.26609
1.26591
1.26507
1.26507
1.26406
1.26106
1.25657
1.25024
1.24273
1.2382
1.23456
1.23182
1.22972
1.22861
1.22865
1.22903
1.22969
1.23126
1.23557
1.24334
1.25251
1.25844
1.25945
1.25908
1.25601
1.25289
1.24892
1.24606
1.24527
1.24534
1.24554
1.24573
1.24611
1.24664
1.24736
1.24889
1.25199
1.25511
1.25621
1.25629
1.25629
1.25629
1.25629
1
1
1
1
1.00001
1.00023
1.00535
1.04375
1.15666
1.24532
1.26978
1.27372
1.27165
1.2677
1.26527
1.26577
1.26712
1.26758
1.26712
1.26506
1.26324
1.26219
1.25858
1.25314
1.24702
1.24043
1.23611
1.23258
1.23021
1.2288
1.22898
1.22978
1.23178
1.23476
1.2378
1.24218
1.24809
1.25416
1.25907
1.26061
1.26048
1.25865
1.25601
1.25261
1.24857
1.24683
1.24666
1.2468
1.24697
1.24724
1.24774
1.24876
1.25062
1.2537
1.25674
1.25757
1.25761
1.25761
1.25761
1.25761
1
1
1
1
1.00015
1.00356
1.0356
1.13438
1.23961
1.26628
1.27745
1.27446
1.27044
1.26752
1.26629
1.26701
1.26791
1.26652
1.26413
1.26159
1.26008
1.25902
1.25558
1.25063
1.24532
1.23954
1.23523
1.23194
1.22994
1.2301
1.231
1.23277
1.23613
1.24069
1.24422
1.24848
1.25263
1.2556
1.25882
1.26115
1.26109
1.2601
1.25816
1.2557
1.25159
1.24832
1.2475
1.24752
1.24758
1.24778
1.24844
1.24971
1.25189
1.25512
1.25763
1.25817
1.25819
1.25819
1.25819
1.25819
1
1
1
1.00005
1.00217
1.02798
1.11501
1.23001
1.27453
1.27135
1.27135
1.27101
1.26976
1.26925
1.2684
1.26681
1.26447
1.26214
1.26056
1.25878
1.25778
1.25688
1.25414
1.25012
1.24516
1.2396
1.23473
1.23194
1.23205
1.23306
1.2348
1.2371
1.24053
1.24475
1.24847
1.25293
1.25585
1.257
1.25824
1.25987
1.26096
1.26074
1.25964
1.25792
1.25473
1.25041
1.24817
1.24784
1.24779
1.24792
1.24866
1.25029
1.25288
1.25606
1.25788
1.25814
1.25815
1.25815
1.25815
1.25815
1
1
1.00003
1.00086
1.01889
1.10415
1.2104
1.26815
1.28103
1.27782
1.27301
1.27085
1.26996
1.26835
1.26465
1.26165
1.25887
1.25744
1.25729
1.25715
1.25768
1.25696
1.25419
1.24995
1.24513
1.23992
1.23518
1.23443
1.23509
1.2371
1.2397
1.24219
1.24472
1.24795
1.2522
1.25638
1.25787
1.25785
1.25794
1.25846
1.25985
1.26081
1.2606
1.25953
1.25717
1.25322
1.24935
1.24815
1.248
1.24805
1.24868
1.25051
1.25354
1.25668
1.25812
1.2583
1.25831
1.25831
1.25831
1.25831
1
1.00001
1.00075
1.0096
1.08377
1.20292
1.27306
1.28031
1.27911
1.27377
1.26855
1.26667
1.26538
1.26144
1.25743
1.25492
1.25475
1.25531
1.25667
1.25821
1.25808
1.25673
1.25417
1.25018
1.24562
1.24101
1.23787
1.23794
1.23913
1.24153
1.24425
1.24614
1.24755
1.25049
1.25486
1.25806
1.25893
1.25856
1.25754
1.25747
1.25835
1.26023
1.26099
1.26075
1.2592
1.25569
1.25131
1.24883
1.24828
1.24831
1.24888
1.25087
1.25424
1.25728
1.25831
1.25838
1.25838
1.25838
1.25838
1.25838
1
1.00026
1.00824
1.05794
1.182
1.27064
1.28897
1.28584
1.2772
1.26734
1.25961
1.25749
1.25686
1.25509
1.25308
1.25295
1.25372
1.25627
1.2584
1.25891
1.25856
1.25719
1.25413
1.25029
1.24692
1.24299
1.24127
1.2417
1.24324
1.24568
1.24797
1.24913
1.25032
1.2531
1.25655
1.25899
1.25961
1.25908
1.25704
1.25657
1.25734
1.25938
1.26103
1.2613
1.26072
1.2577
1.25375
1.25044
1.24909
1.24889
1.24933
1.25141
1.25506
1.2578
1.25844
1.25846
1.25846
1.25846
1.25846
1.25846
1.00002
1.00387
1.04727
1.16681
1.25846
1.28341
1.28305
1.279
1.26935
1.25843
1.25112
1.251
1.25193
1.25268
1.25334
1.25458
1.25651
1.25882
1.25988
1.25971
1.259
1.25709
1.25428
1.25143
1.24862
1.24541
1.24487
1.24549
1.24687
1.24848
1.24982
1.25147
1.25359
1.25589
1.25774
1.25911
1.25974
1.25905
1.25683
1.25629
1.25682
1.25849
1.26063
1.26143
1.26127
1.25943
1.25606
1.25264
1.25024
1.24978
1.2501
1.25216
1.25591
1.25815
1.25848
1.25849
1.25849
1.25849
1.25849
1.25849
1.00096
1.03329
1.14192
1.25992
1.29039
1.28632
1.27856
1.26781
1.25777
1.25288
1.24936
1.25001
1.25193
1.25415
1.2559
1.25756
1.25902
1.26016
1.26048
1.26004
1.25882
1.2571
1.25511
1.253
1.25057
1.24849
1.24868
1.24958
1.25035
1.25093
1.25207
1.25444
1.25677
1.25822
1.2588
1.25891
1.25886
1.25836
1.257
1.2566
1.25686
1.25788
1.25972
1.26107
1.26126
1.26026
1.25776
1.25516
1.25242
1.25135
1.25151
1.2534
1.25682
1.25836
1.25849
1.25849
1.25849
1.25849
1.25849
1.25849
1.01541
1.13969
1.2421
1.27867
1.27362
1.26637
1.25823
1.25139
1.25017
1.25085
1.25223
1.25466
1.25712
1.25789
1.25857
1.25925
1.25995
1.26041
1.26018
1.25958
1.25859
1.25746
1.25634
1.25511
1.25306
1.25186
1.25202
1.25264
1.25304
1.25342
1.25459
1.25675
1.25838
1.25888
1.25888
1.25867
1.25844
1.25813
1.25751
1.25717
1.25724
1.25775
1.25888
1.26014
1.26038
1.25977
1.25865
1.25744
1.25529
1.25343
1.25329
1.25507
1.25775
1.2585
1.25853
1.25853
1.25853
1.25853
1.25853
1.25853
1.14622
1.29165
1.31678
1.29901
1.27501
1.26017
1.25005
1.24676
1.2486
1.2534
1.25704
1.25875
1.25894
1.25881
1.25911
1.25962
1.2594
1.25934
1.25917
1.25882
1.25846
1.25824
1.25799
1.25736
1.25663
1.25649
1.25663
1.25696
1.2571
1.25693
1.25737
1.25845
1.25901
1.25881
1.2585
1.25851
1.25856
1.25837
1.25806
1.25806
1.25814
1.25831
1.25859
1.25903
1.25915
1.25892
1.25855
1.25823
1.25761
1.25681
1.25693
1.25784
1.25847
1.25854
1.25854
1.25854
1.25854
1.25854
1.25854
1.25854
)
;

boundaryField
{
    top
    {
        type            fixedValue;
        value           uniform 1.25853;
    }
    inlet
    {
        type            fixedValue;
        value           uniform 1;
    }
    outlet
    {
        type            zeroGradient;
    }
    bottom
    {
        type            symmetryPlane;
    }
    frontAndBack
    {
        type            empty;
    }
}


// ************************************************************************* //
