/*--------------------------------*- C++ -*----------------------------------*\
| =========                 |                                                 |
| \\      /  F ield         | OpenFOAM: The Open Source CFD Toolbox           |
|  \\    /   O peration     | Version:  2412                                  |
|   \\  /    A nd           | Website:  www.openfoam.com                      |
|    \\/     M anipulation  |                                                 |
\*---------------------------------------------------------------------------*/
FoamFile
{
    version     2.0;
    format      ascii;
    arch        "LSB;label=32;scalar=64";
    class       volVectorField;
    location    "1";
    object      U;
}
// * * * * * * * * * * * * * * * * * * * * * * * * * * * * * * * * * * * * * //

dimensions      [0 1 -1 0 0 0 0];

internalField   nonuniform List<vector> 
1800
(
(2.9 2.03305e-14 0)
(2.9 6.08281e-14 0)
(2.9 1.08613e-13 0)
(2.9 8.83263e-14 0)
(2.9 9.77013e-14 0)
(2.9 8.00227e-14 0)
(2.9 -6.02721e-15 0)
(2.9 5.23712e-14 0)
(2.9 1.53546e-13 0)
(2.9 1.4699e-13 0)
(2.9 1.66084e-13 0)
(2.9 1.37641e-13 0)
(2.9 2.34271e-13 0)
(2.9 2.96763e-13 0)
(2.9 2.71175e-13 0)
(2.9 3.56486e-13 0)
(2.9 3.61853e-13 0)
(2.9 3.21354e-13 0)
(2.9 -5.39376e-13 0)
(2.9 -2.63095e-10 0)
(2.9 -5.30091e-08 0)
(2.9 -4.12766e-06 0)
(2.89985 -0.000176567 0)
(2.89704 -0.00385916 0)
(2.87166 -0.0308814 0)
(2.77861 -0.128985 0)
(2.68668 -0.206676 0)
(2.65169 -0.199357 0)
(2.62059 -0.193952 0)
(2.6028 -0.153838 0)
(2.60013 -0.0814637 0)
(2.60456 -0.0481613 0)
(2.61573 -0.0172691 0)
(2.62519 -0.00272257 0)
(2.63874 -0.00689327 0)
(2.65735 -0.0078879 0)
(2.67745 -0.00657509 0)
(2.68898 -0.00625643 0)
(2.70166 -0.00592769 0)
(2.71685 -0.00563425 0)
(2.73391 -0.0056982 0)
(2.75137 -0.00544287 0)
(2.76016 -0.00645637 0)
(2.76597 -0.00761548 0)
(2.77552 -0.00865435 0)
(2.78717 -0.0103187 0)
(2.79617 -0.0111728 0)
(2.80166 -0.0103643 0)
(2.80195 -0.00741337 0)
(2.80212 -0.00323327 0)
(2.80428 0.00178206 0)
(2.81549 0.00578549 0)
(2.84058 0.00501792 0)
(2.85996 0.00219663 0)
(2.86306 0.00129786 0)
(2.863 0.0012445 0)
(2.86286 0.00117422 0)
(2.86248 0.00111935 0)
(2.86231 0.00110965 0)
(2.86185 0.00110424 0)
(2.9 7.79257e-15 0)
(2.9 9.80897e-14 0)
(2.9 1.11205e-13 0)
(2.9 6.06995e-14 0)
(2.9 3.65218e-14 0)
(2.9 -4.10173e-14 0)
(2.9 -1.82353e-13 0)
(2.9 -5.33049e-14 0)
(2.9 1.02128e-13 0)
(2.9 6.91411e-14 0)
(2.9 1.65508e-13 0)
(2.9 1.02254e-13 0)
(2.9 1.17313e-13 0)
(2.9 1.88983e-13 0)
(2.9 2.69907e-13 0)
(2.9 3.68491e-13 0)
(2.9 3.04307e-13 0)
(2.9 -6.97628e-13 0)
(2.9 -3.01354e-10 0)
(2.9 -4.91337e-08 0)
(2.9 -6.06379e-06 0)
(2.89991 -0.000228086 0)
(2.8979 -0.00573374 0)
(2.88307 -0.0434513 0)
(2.82478 -0.187021 0)
(2.75332 -0.363973 0)
(2.70884 -0.43639 0)
(2.6661 -0.371475 0)
(2.63841 -0.231829 0)
(2.62382 -0.0972149 0)
(2.61723 0.00400647 0)
(2.62254 0.029528 0)
(2.62812 0.0201196 0)
(2.63955 0.00839912 0)
(2.65673 -0.00363414 0)
(2.67453 -0.0128926 0)
(2.69044 -0.01071 0)
(2.703 -0.00735753 0)
(2.71611 -0.00571179 0)
(2.72935 -0.00514311 0)
(2.74525 -0.0054576 0)
(2.75987 -0.00685911 0)
(2.77149 -0.0120351 0)
(2.78214 -0.0164397 0)
(2.79239 -0.0201512 0)
(2.80218 -0.0258373 0)
(2.81113 -0.0297797 0)
(2.81465 -0.0300069 0)
(2.81575 -0.0280209 0)
(2.81749 -0.0238609 0)
(2.82264 -0.0148343 0)
(2.83562 -0.00284739 0)
(2.856 0.00231639 0)
(2.87219 -0.00275865 0)
(2.87735 -0.00657679 0)
(2.87772 -0.00726254 0)
(2.87763 -0.00739073 0)
(2.87734 -0.00754477 0)
(2.87714 -0.00759674 0)
(2.8772 -0.00743234 0)
(2.9 2.7925e-14 0)
(2.9 1.22803e-13 0)
(2.9 1.56861e-13 0)
(2.9 1.54941e-13 0)
(2.9 1.15163e-13 0)
(2.9 6.99455e-14 0)
(2.9 1.03646e-13 0)
(2.9 2.80683e-13 0)
(2.9 3.13976e-13 0)
(2.9 2.92547e-13 0)
(2.9 4.21737e-13 0)
(2.9 4.20518e-13 0)
(2.9 3.71901e-13 0)
(2.9 4.87682e-13 0)
(2.9 7.48968e-13 0)
(2.9 6.07705e-13 0)
(2.9 -7.14096e-15 0)
(2.9 -1.54077e-10 0)
(2.9 -4.02015e-08 0)
(2.9 -3.0287e-06 0)
(2.89992 -0.000198723 0)
(2.89824 -0.00457305 0)
(2.88326 -0.0415666 0)
(2.81913 -0.202254 0)
(2.73627 -0.367186 0)
(2.71228 -0.413066 0)
(2.70258 -0.47823 0)
(2.69321 -0.468856 0)
(2.68898 -0.426958 0)
(2.69077 -0.353763 0)
(2.70109 -0.264463 0)
(2.71282 -0.170206 0)
(2.70964 -0.106947 0)
(2.71096 -0.0627238 0)
(2.71624 -0.0364768 0)
(2.71979 -0.0283116 0)
(2.72232 -0.0203011 0)
(2.73136 -0.0124823 0)
(2.74203 -0.0100334 0)
(2.75444 -0.0102141 0)
(2.76757 -0.0117744 0)
(2.77971 -0.0142169 0)
(2.79485 -0.0206444 0)
(2.81054 -0.0247777 0)
(2.81716 -0.025456 0)
(2.8252 -0.0261237 0)
(2.83154 -0.0274291 0)
(2.83755 -0.0282128 0)
(2.84379 -0.0269347 0)
(2.85037 -0.0230488 0)
(2.85866 -0.0153391 0)
(2.87097 -0.00346995 0)
(2.88496 0.00429309 0)
(2.89577 0.00142065 0)
(2.90266 -0.00487443 0)
(2.90484 -0.00726564 0)
(2.90494 -0.00753606 0)
(2.90484 -0.00772775 0)
(2.9046 -0.00789882 0)
(2.90551 -0.00711293 0)
(2.9 6.79086e-14 0)
(2.9 2.87924e-13 0)
(2.9 3.27078e-13 0)
(2.9 4.71101e-13 0)
(2.9 4.69006e-13 0)
(2.9 6.52784e-13 0)
(2.9 7.77995e-13 0)
(2.9 7.01902e-13 0)
(2.9 5.34949e-13 0)
(2.9 6.1372e-13 0)
(2.9 4.2721e-13 0)
(2.9 2.75135e-13 0)
(2.9 5.92828e-13 0)
(2.9 6.263e-13 0)
(2.9 7.91294e-13 0)
(2.9 1.55107e-13 0)
(2.9 -1.00064e-10 0)
(2.9 -1.60173e-08 0)
(2.9 -2.65596e-06 0)
(2.89996 -9.76392e-05 0)
(2.89848 -0.00342808 0)
(2.88613 -0.0363989 0)
(2.81751 -0.185295 0)
(2.76088 -0.335623 0)
(2.68391 -0.448587 0)
(2.67651 -0.485233 0)
(2.68098 -0.498284 0)
(2.69053 -0.498221 0)
(2.70019 -0.482727 0)
(2.71225 -0.457307 0)
(2.71824 -0.409118 0)
(2.71622 -0.321726 0)
(2.70989 -0.212939 0)
(2.71138 -0.123999 0)
(2.72177 -0.0782596 0)
(2.73329 -0.0629898 0)
(2.74233 -0.051269 0)
(2.75253 -0.037145 0)
(2.76252 -0.0315694 0)
(2.77432 -0.030896 0)
(2.78754 -0.0304597 0)
(2.79922 -0.032889 0)
(2.81481 -0.0388344 0)
(2.82783 -0.0388194 0)
(2.83397 -0.0363128 0)
(2.83838 -0.0342579 0)
(2.84295 -0.032276 0)
(2.8497 -0.0264436 0)
(2.85791 -0.0186728 0)
(2.86783 -0.00959914 0)
(2.88012 0.00168854 0)
(2.89321 0.0091509 0)
(2.90304 0.00936271 0)
(2.91005 0.00575805 0)
(2.9161 0.00167015 0)
(2.91951 -0.000479177 0)
(2.91994 -0.000827496 0)
(2.91991 -0.000889531 0)
(2.91979 -0.000984817 0)
(2.92086 -0.000365986 0)
(2.9 -1.17032e-13 0)
(2.9 -1.73704e-14 0)
(2.9 1.30655e-13 0)
(2.9 5.15382e-13 0)
(2.9 6.17556e-13 0)
(2.9 5.31666e-13 0)
(2.9 6.53448e-13 0)
(2.9 5.17567e-13 0)
(2.9 2.14788e-13 0)
(2.9 1.04527e-13 0)
(2.9 2.74534e-14 0)
(2.9 7.13519e-14 0)
(2.9 1.36865e-13 0)
(2.9 3.06219e-13 0)
(2.9 2.87377e-13 0)
(2.9 -5.69135e-11 0)
(2.9 -1.01339e-08 0)
(2.9 -1.13809e-06 0)
(2.89997 -7.9488e-05 0)
(2.89919 -0.0020217 0)
(2.88683 -0.0285329 0)
(2.84411 -0.128722 0)
(2.70716 -0.410663 0)
(2.68568 -0.446854 0)
(2.66862 -0.470393 0)
(2.67144 -0.481337 0)
(2.68014 -0.494581 0)
(2.69356 -0.494609 0)
(2.70648 -0.483492 0)
(2.71722 -0.478304 0)
(2.72678 -0.47445 0)
(2.72944 -0.462349 0)
(2.72752 -0.426233 0)
(2.72558 -0.361714 0)
(2.7267 -0.28313 0)
(2.73023 -0.204791 0)
(2.74008 -0.148415 0)
(2.75421 -0.114684 0)
(2.76426 -0.0935765 0)
(2.77482 -0.0848588 0)
(2.78733 -0.0708859 0)
(2.80002 -0.0658804 0)
(2.81263 -0.0654093 0)
(2.82427 -0.0599112 0)
(2.83178 -0.0523493 0)
(2.83876 -0.0476686 0)
(2.84413 -0.0401185 0)
(2.84812 -0.0271566 0)
(2.85453 -0.010753 0)
(2.86445 0.00508374 0)
(2.87662 0.0165829 0)
(2.88723 0.0218199 0)
(2.89393 0.0204893 0)
(2.89961 0.0166106 0)
(2.90701 0.0115375 0)
(2.91204 0.00855745 0)
(2.91275 0.00816024 0)
(2.91276 0.0081285 0)
(2.91267 0.0080564 0)
(2.91555 0.00921279 0)
(2.9 -1.15929e-13 0)
(2.9 -1.42081e-13 0)
(2.9 -3.36976e-14 0)
(2.9 1.64304e-13 0)
(2.9 4.75949e-13 0)
(2.9 3.26398e-13 0)
(2.9 2.86251e-13 0)
(2.9 3.23114e-13 0)
(2.9 3.73354e-13 0)
(2.9 2.2249e-13 0)
(2.9 2.89476e-13 0)
(2.9 2.25877e-13 0)
(2.9 2.40681e-13 0)
(2.9 2.72823e-13 0)
(2.9 -1.23861e-11 0)
(2.9 -5.40786e-09 0)
(2.9 -6.26432e-07 0)
(2.89998 -4.32306e-05 0)
(2.89936 -0.00148604 0)
(2.89145 -0.0207921 0)
(2.84709 -0.12374 0)
(2.73317 -0.324843 0)
(2.67677 -0.423157 0)
(2.65493 -0.481129 0)
(2.65586 -0.488988 0)
(2.66351 -0.494507 0)
(2.67905 -0.498883 0)
(2.6934 -0.496186 0)
(2.70579 -0.486952 0)
(2.71737 -0.485345 0)
(2.72523 -0.486665 0)
(2.73035 -0.487176 0)
(2.73636 -0.486758 0)
(2.74173 -0.479472 0)
(2.74758 -0.457117 0)
(2.75171 -0.408016 0)
(2.75265 -0.332651 0)
(2.75411 -0.25253 0)
(2.75762 -0.185716 0)
(2.76268 -0.135638 0)
(2.77422 -0.110629 0)
(2.7865 -0.0815683 0)
(2.79512 -0.0502905 0)
(2.80439 -0.0354179 0)
(2.81285 -0.0410166 0)
(2.82416 -0.0393197 0)
(2.83145 -0.0257744 0)
(2.84 -0.0123936 0)
(2.85069 0.00266693 0)
(2.86107 0.0224163 0)
(2.87002 0.0406949 0)
(2.87674 0.052081 0)
(2.8814 0.0566396 0)
(2.88596 0.0566149 0)
(2.89235 0.0522365 0)
(2.89901 0.0456864 0)
(2.90113 0.0435308 0)
(2.90122 0.0433792 0)
(2.90112 0.0433182 0)
(2.91482 0.0382821 0)
(2.9 5.08569e-14 0)
(2.9 8.14508e-14 0)
(2.9 3.66536e-15 0)
(2.9 1.25042e-14 0)
(2.9 2.03725e-13 0)
(2.9 3.56268e-13 0)
(2.9 2.85094e-13 0)
(2.9 2.45549e-13 0)
(2.9 3.25037e-13 0)
(2.9 3.47231e-13 0)
(2.9 3.2918e-13 0)
(2.9 2.59469e-13 0)
(2.9 3.6614e-13 0)
(2.9 -1.02601e-11 0)
(2.9 -1.6298e-09 0)
(2.9 -3.15e-07 0)
(2.89999 -2.38541e-05 0)
(2.89964 -0.000843622 0)
(2.89335 -0.0164846 0)
(2.85222 -0.103278 0)
(2.78368 -0.288691 0)
(2.65773 -0.470258 0)
(2.63378 -0.483596 0)
(2.6434 -0.493073 0)
(2.65029 -0.495287 0)
(2.66171 -0.498243 0)
(2.68044 -0.497768 0)
(2.69487 -0.494591 0)
(2.70689 -0.489162 0)
(2.71617 -0.490162 0)
(2.72093 -0.491681 0)
(2.72711 -0.492615 0)
(2.73484 -0.494327 0)
(2.74398 -0.497942 0)
(2.75464 -0.499666 0)
(2.76558 -0.497321 0)
(2.77667 -0.483583 0)
(2.78093 -0.455946 0)
(2.7849 -0.416295 0)
(2.79069 -0.37196 0)
(2.79685 -0.321645 0)
(2.80529 -0.27203 0)
(2.81669 -0.232845 0)
(2.82484 -0.197922 0)
(2.82263 -0.157546 0)
(2.82508 -0.127766 0)
(2.83703 -0.113309 0)
(2.8557 -0.101035 0)
(2.87331 -0.087793 0)
(2.88677 -0.0762843 0)
(2.89438 -0.068394 0)
(2.89799 -0.0666694 0)
(2.90115 -0.0688772 0)
(2.904 -0.071465 0)
(2.9087 -0.0743271 0)
(2.91606 -0.0783055 0)
(2.91967 -0.0799073 0)
(2.91992 -0.0800243 0)
(2.91989 -0.0800449 0)
(2.95696 -0.0859511 0)
(2.9 -1.42834e-14 0)
(2.9 -3.62017e-15 0)
(2.9 -1.57043e-14 0)
(2.9 -7.27902e-14 0)
(2.9 -1.1602e-13 0)
(2.9 1.46074e-13 0)
(2.9 4.12048e-13 0)
(2.9 4.62488e-13 0)
(2.9 5.08589e-13 0)
(2.9 4.30066e-13 0)
(2.9 4.16172e-13 0)
(2.9 3.80254e-13 0)
(2.9 -2.3037e-12 0)
(2.9 -1.06536e-09 0)
(2.9 -1.42304e-07 0)
(2.89999 -1.25033e-05 0)
(2.8998 -0.000489414 0)
(2.89538 -0.0109527 0)
(2.86668 -0.0729146 0)
(2.74814 -0.31783 0)
(2.6995 -0.428345 0)
(2.64486 -0.469449 0)
(2.63275 -0.491252 0)
(2.6327 -0.496297 0)
(2.64385 -0.497756 0)
(2.65849 -0.497089 0)
(2.67924 -0.496169 0)
(2.69478 -0.494138 0)
(2.70586 -0.493102 0)
(2.71295 -0.494195 0)
(2.71599 -0.494671 0)
(2.72416 -0.496283 0)
(2.73314 -0.499024 0)
(2.74247 -0.504604 0)
(2.75298 -0.507952 0)
(2.76379 -0.507101 0)
(2.77821 -0.507732 0)
(2.78869 -0.507295 0)
(2.79888 -0.507687 0)
(2.8088 -0.504241 0)
(2.82053 -0.494119 0)
(2.82754 -0.470444 0)
(2.83284 -0.436892 0)
(2.83763 -0.398968 0)
(2.83955 -0.360266 0)
(2.84076 -0.320144 0)
(2.84566 -0.280633 0)
(2.85696 -0.249314 0)
(2.86903 -0.231253 0)
(2.875 -0.228151 0)
(2.87871 -0.233818 0)
(2.88017 -0.245065 0)
(2.88135 -0.252921 0)
(2.88373 -0.256663 0)
(2.88929 -0.259966 0)
(2.89861 -0.261768 0)
(2.90304 -0.262445 0)
(2.90341 -0.262534 0)
(2.90341 -0.262537 0)
(2.93998 -0.263759 0)
(2.9 -6.98341e-14 0)
(2.9 -1.02045e-13 0)
(2.9 -7.92481e-14 0)
(2.9 -1.3433e-13 0)
(2.9 -1.61411e-13 0)
(2.9 -1.10502e-13 0)
(2.9 7.87323e-14 0)
(2.9 3.64022e-13 0)
(2.9 3.35333e-13 0)
(2.9 2.47137e-13 0)
(2.9 3.50533e-13 0)
(2.9 -5.44534e-13 0)
(2.9 -3.35374e-10 0)
(2.9 -5.75054e-08 0)
(2.9 -8.2975e-06 0)
(2.89989 -0.000249064 0)
(2.89677 -0.00769546 0)
(2.87586 -0.0548544 0)
(2.76939 -0.255639 0)
(2.70024 -0.412611 0)
(2.63513 -0.489092 0)
(2.62902 -0.496131 0)
(2.62732 -0.500351 0)
(2.63082 -0.501922 0)
(2.64341 -0.500967 0)
(2.65611 -0.497544 0)
(2.6752 -0.495198 0)
(2.69158 -0.495217 0)
(2.70192 -0.496142 0)
(2.70907 -0.497044 0)
(2.71384 -0.497633 0)
(2.72322 -0.499902 0)
(2.73382 -0.503054 0)
(2.7427 -0.508643 0)
(2.75189 -0.512989 0)
(2.76226 -0.513605 0)
(2.774 -0.513149 0)
(2.78834 -0.515045 0)
(2.80231 -0.517815 0)
(2.81558 -0.520391 0)
(2.83143 -0.519891 0)
(2.83965 -0.515922 0)
(2.84543 -0.513864 0)
(2.85237 -0.509678 0)
(2.85625 -0.499286 0)
(2.86089 -0.487487 0)
(2.86514 -0.473611 0)
(2.86924 -0.464752 0)
(2.87365 -0.46409 0)
(2.87843 -0.469546 0)
(2.88039 -0.474004 0)
(2.8828 -0.477718 0)
(2.8859 -0.478553 0)
(2.88998 -0.478772 0)
(2.89683 -0.479019 0)
(2.90556 -0.479694 0)
(2.9104 -0.480302 0)
(2.91096 -0.480391 0)
(2.91097 -0.480399 0)
(2.91559 -0.479429 0)
(2.9 4.42797e-14 0)
(2.9 1.18808e-13 0)
(2.9 1.25962e-14 0)
(2.9 3.93879e-14 0)
(2.9 7.814e-15 0)
(2.9 -9.0506e-14 0)
(2.9 -3.35321e-14 0)
(2.9 1.29184e-13 0)
(2.9 2.24081e-13 0)
(2.9 2.63706e-13 0)
(2.9 5.59711e-14 0)
(2.9 -1.12488e-10 0)
(2.9 -2.84715e-08 0)
(2.9 -2.93913e-06 0)
(2.89992 -0.000196405 0)
(2.89823 -0.00435962 0)
(2.87774 -0.0478134 0)
(2.81366 -0.186326 0)
(2.67119 -0.460692 0)
(2.64361 -0.494383 0)
(2.62576 -0.491989 0)
(2.62722 -0.492021 0)
(2.62987 -0.498741 0)
(2.63197 -0.50318 0)
(2.64484 -0.501569 0)
(2.65643 -0.497653 0)
(2.67319 -0.496029 0)
(2.68725 -0.497017 0)
(2.69679 -0.498455 0)
(2.70382 -0.499803 0)
(2.71184 -0.501376 0)
(2.72199 -0.504381 0)
(2.73322 -0.50785 0)
(2.74154 -0.513058 0)
(2.74902 -0.517747 0)
(2.75866 -0.520178 0)
(2.77211 -0.521592 0)
(2.78812 -0.523734 0)
(2.80395 -0.526362 0)
(2.81945 -0.52763 0)
(2.83626 -0.52613 0)
(2.84316 -0.522957 0)
(2.85073 -0.521763 0)
(2.85775 -0.519261 0)
(2.86315 -0.514687 0)
(2.86685 -0.512413 0)
(2.87105 -0.506807 0)
(2.87432 -0.502803 0)
(2.87684 -0.50172 0)
(2.88119 -0.502464 0)
(2.88588 -0.504515 0)
(2.88873 -0.505191 0)
(2.89183 -0.504209 0)
(2.8957 -0.503378 0)
(2.90171 -0.502722 0)
(2.91023 -0.502683 0)
(2.91531 -0.50291 0)
(2.91599 -0.502954 0)
(2.916 -0.50296 0)
(2.9151 -0.502908 0)
(2.9 -2.05988e-14 0)
(2.9 6.24404e-15 0)
(2.9 2.19319e-14 0)
(2.9 8.15723e-14 0)
(2.9 4.01714e-14 0)
(2.9 1.79926e-14 0)
(2.9 1.58168e-14 0)
(2.9 1.01436e-13 0)
(2.9 2.11573e-13 0)
(2.9 2.99688e-14 0)
(2.9 -7.27314e-11 0)
(2.9 -1.7598e-08 0)
(2.9 -1.95234e-06 0)
(2.89996 -9.27203e-05 0)
(2.89858 -0.00312412 0)
(2.88642 -0.0359375 0)
(2.81569 -0.175541 0)
(2.71645 -0.367136 0)
(2.65717 -0.481447 0)
(2.61795 -0.512289 0)
(2.61968 -0.506103 0)
(2.62304 -0.502197 0)
(2.62825 -0.503256 0)
(2.63189 -0.503353 0)
(2.64562 -0.500466 0)
(2.65805 -0.496986 0)
(2.67199 -0.496503 0)
(2.68302 -0.498414 0)
(2.69151 -0.500607 0)
(2.69943 -0.503368 0)
(2.7088 -0.50598 0)
(2.71962 -0.50881 0)
(2.73069 -0.512366 0)
(2.73836 -0.516638 0)
(2.74441 -0.521325 0)
(2.75248 -0.52558 0)
(2.76529 -0.529069 0)
(2.78342 -0.532615 0)
(2.80321 -0.535959 0)
(2.82185 -0.535459 0)
(2.83992 -0.531198 0)
(2.8473 -0.52634 0)
(2.85476 -0.526031 0)
(2.86099 -0.524554 0)
(2.86543 -0.521887 0)
(2.86766 -0.51856 0)
(2.87033 -0.51486 0)
(2.8731 -0.510228 0)
(2.87729 -0.504695 0)
(2.88078 -0.502249 0)
(2.88539 -0.502073 0)
(2.8913 -0.503721 0)
(2.89357 -0.505767 0)
(2.89577 -0.505536 0)
(2.90103 -0.504265 0)
(2.90931 -0.503125 0)
(2.91449 -0.503063 0)
(2.91527 -0.503109 0)
(2.91529 -0.503111 0)
(2.91503 -0.503254 0)
(2.9 -6.18262e-14 0)
(2.9 -7.70594e-14 0)
(2.9 1.41063e-14 0)
(2.9 1.02867e-13 0)
(2.9 9.52718e-14 0)
(2.9 7.18707e-14 0)
(2.9 1.53525e-13 0)
(2.9 3.56861e-13 0)
(2.9 1.482e-13 0)
(2.9 -5.12507e-11 0)
(2.9 -9.25686e-09 0)
(2.9 -1.24711e-06 0)
(2.89997 -7.87991e-05 0)
(2.89931 -0.00172907 0)
(2.88667 -0.03021 0)
(2.84253 -0.131961 0)
(2.71593 -0.384546 0)
(2.6424 -0.507682 0)
(2.62638 -0.505769 0)
(2.6177 -0.505488 0)
(2.61987 -0.50538 0)
(2.62511 -0.505852 0)
(2.62775 -0.507026 0)
(2.6342 -0.503824 0)
(2.64745 -0.499785 0)
(2.6593 -0.497969 0)
(2.6715 -0.498305 0)
(2.68044 -0.500605 0)
(2.68833 -0.504239 0)
(2.69661 -0.507001 0)
(2.706 -0.510675 0)
(2.71722 -0.5131 0)
(2.72747 -0.51549 0)
(2.73492 -0.518834 0)
(2.73998 -0.523315 0)
(2.74536 -0.529152 0)
(2.75575 -0.536875 0)
(2.77129 -0.542154 0)
(2.79095 -0.545992 0)
(2.81087 -0.544172 0)
(2.82664 -0.532678 0)
(2.83882 -0.52678 0)
(2.8476 -0.524609 0)
(2.85493 -0.522977 0)
(2.85906 -0.52265 0)
(2.86081 -0.522558 0)
(2.86288 -0.520951 0)
(2.86437 -0.517863 0)
(2.86481 -0.514337 0)
(2.86752 -0.510174 0)
(2.87159 -0.507285 0)
(2.87625 -0.507501 0)
(2.88142 -0.509816 0)
(2.88668 -0.510922 0)
(2.89215 -0.510345 0)
(2.89827 -0.50932 0)
(2.90316 -0.508778 0)
(2.90413 -0.508746 0)
(2.90416 -0.508748 0)
(2.90488 -0.508837 0)
(2.9 4.42071e-14 0)
(2.9 9.14443e-14 0)
(2.9 1.38622e-13 0)
(2.9 7.98612e-14 0)
(2.9 4.98432e-14 0)
(2.9 1.71421e-13 0)
(2.9 2.21169e-13 0)
(2.9 3.3979e-13 0)
(2.9 -5.92761e-12 0)
(2.9 -4.96704e-09 0)
(2.9 -4.76947e-07 0)
(2.89998 -4.63182e-05 0)
(2.89941 -0.00140829 0)
(2.8919 -0.0193947 0)
(2.84469 -0.131614 0)
(2.72847 -0.337296 0)
(2.67121 -0.441633 0)
(2.62634 -0.503572 0)
(2.61717 -0.510045 0)
(2.61722 -0.509331 0)
(2.61942 -0.5089 0)
(2.62461 -0.509278 0)
(2.6269 -0.510855 0)
(2.63576 -0.506177 0)
(2.64746 -0.501287 0)
(2.65999 -0.499466 0)
(2.67138 -0.499206 0)
(2.67926 -0.501356 0)
(2.68685 -0.506405 0)
(2.69461 -0.509541 0)
(2.70416 -0.514345 0)
(2.71437 -0.517445 0)
(2.7252 -0.518846 0)
(2.73214 -0.520982 0)
(2.73664 -0.52495 0)
(2.73991 -0.531317 0)
(2.74624 -0.543702 0)
(2.75606 -0.554227 0)
(2.76979 -0.557115 0)
(2.78024 -0.552084 0)
(2.79204 -0.541719 0)
(2.80274 -0.53358 0)
(2.81059 -0.528076 0)
(2.81683 -0.521733 0)
(2.82253 -0.517212 0)
(2.82877 -0.516025 0)
(2.83373 -0.517299 0)
(2.83739 -0.519168 0)
(2.8406 -0.519937 0)
(2.8427 -0.519412 0)
(2.84385 -0.517452 0)
(2.84412 -0.514143 0)
(2.84584 -0.512309 0)
(2.85091 -0.512178 0)
(2.85867 -0.51267 0)
(2.86611 -0.511943 0)
(2.8695 -0.511074 0)
(2.86997 -0.51092 0)
(2.86998 -0.510923 0)
(2.86989 -0.510672 0)
(2.9 7.86544e-15 0)
(2.9 4.60193e-14 0)
(2.9 6.90828e-14 0)
(2.9 2.75417e-14 0)
(2.9 -9.63894e-14 0)
(2.9 2.26139e-14 0)
(2.9 7.4022e-14 0)
(2.9 -3.13245e-12 0)
(2.9 -7.21182e-10 0)
(2.9 -2.49318e-07 0)
(2.89999 -1.72298e-05 0)
(2.89964 -0.000820028 0)
(2.89374 -0.0143713 0)
(2.85072 -0.107549 0)
(2.78412 -0.274595 0)
(2.63641 -0.497072 0)
(2.6001 -0.527204 0)
(2.6044 -0.514432 0)
(2.61445 -0.508865 0)
(2.61634 -0.507758 0)
(2.61933 -0.507278 0)
(2.62278 -0.510487 0)
(2.62694 -0.510987 0)
(2.63582 -0.505962 0)
(2.64691 -0.502673 0)
(2.66002 -0.500493 0)
(2.67087 -0.500969 0)
(2.67874 -0.504432 0)
(2.68702 -0.509509 0)
(2.69399 -0.512395 0)
(2.70286 -0.517023 0)
(2.71257 -0.521336 0)
(2.72173 -0.522616 0)
(2.73024 -0.52337 0)
(2.73426 -0.525791 0)
(2.7359 -0.531864 0)
(2.73674 -0.544744 0)
(2.7371 -0.557829 0)
(2.7399 -0.560399 0)
(2.74175 -0.557479 0)
(2.74518 -0.548594 0)
(2.75245 -0.543368 0)
(2.7581 -0.537836 0)
(2.76133 -0.530836 0)
(2.76487 -0.521636 0)
(2.76926 -0.515209 0)
(2.77304 -0.51229 0)
(2.77812 -0.511455 0)
(2.78227 -0.512709 0)
(2.78504 -0.514048 0)
(2.78621 -0.514295 0)
(2.78708 -0.513045 0)
(2.78948 -0.511386 0)
(2.79394 -0.509659 0)
(2.80104 -0.50803 0)
(2.80867 -0.506357 0)
(2.81174 -0.505538 0)
(2.81203 -0.505462 0)
(2.81203 -0.505464 0)
(2.81116 -0.505299 0)
(2.9 -6.05936e-14 0)
(2.9 -1.11527e-13 0)
(2.9 -5.34122e-14 0)
(2.9 -1.65575e-14 0)
(2.9 5.37509e-14 0)
(2.9 -2.94494e-15 0)
(2.9 -9.40614e-13 0)
(2.9 -7.0373e-10 0)
(2.9 -6.80207e-08 0)
(2.9 -1.08368e-05 0)
(2.89983 -0.000408597 0)
(2.89606 -0.00848152 0)
(2.86051 -0.0856182 0)
(2.76085 -0.278421 0)
(2.69535 -0.431802 0)
(2.62527 -0.502927 0)
(2.60492 -0.505643 0)
(2.61218 -0.503081 0)
(2.61616 -0.50057 0)
(2.61785 -0.499889 0)
(2.61833 -0.503692 0)
(2.6191 -0.51123 0)
(2.62641 -0.509736 0)
(2.63539 -0.506726 0)
(2.64737 -0.504142 0)
(2.65975 -0.501347 0)
(2.66936 -0.50282 0)
(2.67782 -0.508218 0)
(2.68777 -0.512834 0)
(2.69456 -0.515558 0)
(2.7016 -0.520151 0)
(2.71067 -0.524875 0)
(2.71744 -0.526087 0)
(2.72648 -0.525947 0)
(2.73165 -0.527306 0)
(2.73267 -0.532556 0)
(2.72892 -0.543106 0)
(2.72027 -0.555675 0)
(2.71265 -0.558146 0)
(2.70671 -0.553155 0)
(2.70218 -0.543709 0)
(2.70105 -0.540647 0)
(2.70124 -0.539126 0)
(2.70254 -0.535551 0)
(2.70408 -0.530324 0)
(2.70671 -0.523031 0)
(2.70938 -0.517403 0)
(2.71206 -0.513811 0)
(2.71482 -0.511729 0)
(2.71744 -0.510747 0)
(2.71981 -0.510354 0)
(2.72242 -0.510602 0)
(2.72575 -0.511011 0)
(2.73043 -0.510527 0)
(2.73739 -0.508389 0)
(2.74446 -0.505928 0)
(2.74707 -0.505105 0)
(2.74726 -0.505056 0)
(2.74726 -0.505058 0)
(2.74686 -0.505094 0)
(2.9 3.67643e-14 0)
(2.9 5.26853e-14 0)
(2.9 -1.7165e-14 0)
(2.9 1.58309e-14 0)
(2.9 2.43183e-13 0)
(2.9 -6.99343e-13 0)
(2.9 -1.52929e-10 0)
(2.9 -7.01436e-08 0)
(2.9 -4.86768e-06 0)
(2.89987 -0.000316762 0)
(2.89777 -0.00546886 0)
(2.87111 -0.0642598 0)
(2.77533 -0.240156 0)
(2.68848 -0.398827 0)
(2.61816 -0.53161 0)
(2.60178 -0.529078 0)
(2.60216 -0.51046 0)
(2.61317 -0.497471 0)
(2.61561 -0.494773 0)
(2.61795 -0.497348 0)
(2.61804 -0.505653 0)
(2.61841 -0.511821 0)
(2.62561 -0.510401 0)
(2.63497 -0.508751 0)
(2.64762 -0.506069 0)
(2.6585 -0.503691 0)
(2.66718 -0.507019 0)
(2.67845 -0.512937 0)
(2.68769 -0.51524 0)
(2.69468 -0.517838 0)
(2.7009 -0.522195 0)
(2.70595 -0.527584 0)
(2.71036 -0.529318 0)
(2.71941 -0.529455 0)
(2.7264 -0.529269 0)
(2.72828 -0.531876 0)
(2.72246 -0.539702 0)
(2.70797 -0.54967 0)
(2.69301 -0.553197 0)
(2.67985 -0.548907 0)
(2.66758 -0.540978 0)
(2.66113 -0.536264 0)
(2.65812 -0.534484 0)
(2.65541 -0.53168 0)
(2.65467 -0.529112 0)
(2.65569 -0.525674 0)
(2.65711 -0.52225 0)
(2.65892 -0.51962 0)
(2.6612 -0.517412 0)
(2.66352 -0.515464 0)
(2.66574 -0.514196 0)
(2.66828 -0.513642 0)
(2.67165 -0.513268 0)
(2.67668 -0.512288 0)
(2.68391 -0.510155 0)
(2.69037 -0.507998 0)
(2.69223 -0.50738 0)
(2.69233 -0.507351 0)
(2.69233 -0.507352 0)
(2.69209 -0.507314 0)
(2.9 1.06058e-14 0)
(2.9 2.43811e-15 0)
(2.9 -2.59357e-14 0)
(2.9 1.30245e-13 0)
(2.9 8.50901e-14 0)
(2.9 -9.61593e-11 0)
(2.9 -1.65672e-08 0)
(2.9 -3.75028e-06 0)
(2.89993 -0.000164732 0)
(2.89791 -0.00510062 0)
(2.88008 -0.0477356 0)
(2.80966 -0.197097 0)
(2.68181 -0.412566 0)
(2.62597 -0.501132 0)
(2.6081 -0.526008 0)
(2.60308 -0.522394 0)
(2.60927 -0.504084 0)
(2.61456 -0.493168 0)
(2.61686 -0.494803 0)
(2.61951 -0.500716 0)
(2.61895 -0.50794 0)
(2.6204 -0.510176 0)
(2.62676 -0.509077 0)
(2.63623 -0.50829 0)
(2.64796 -0.506591 0)
(2.65583 -0.506912 0)
(2.6669 -0.512041 0)
(2.67856 -0.514672 0)
(2.68726 -0.516327 0)
(2.69498 -0.518402 0)
(2.70016 -0.522414 0)
(2.70171 -0.528338 0)
(2.70334 -0.531728 0)
(2.71035 -0.532877 0)
(2.7183 -0.532407 0)
(2.72147 -0.532426 0)
(2.71604 -0.534397 0)
(2.70009 -0.539865 0)
(2.67988 -0.544221 0)
(2.66065 -0.542315 0)
(2.64328 -0.537726 0)
(2.63591 -0.534365 0)
(2.6314 -0.531912 0)
(2.62749 -0.52998 0)
(2.62451 -0.527133 0)
(2.62411 -0.523387 0)
(2.62457 -0.520461 0)
(2.62563 -0.518881 0)
(2.62691 -0.517816 0)
(2.62821 -0.516802 0)
(2.62981 -0.515937 0)
(2.63196 -0.515158 0)
(2.63512 -0.51409 0)
(2.64028 -0.512239 0)
(2.64761 -0.509524 0)
(2.65317 -0.507533 0)
(2.6544 -0.507137 0)
(2.65445 -0.507126 0)
(2.65445 -0.507128 0)
(2.6541 -0.507034 0)
(2.9 -3.683e-14 0)
(2.9 -3.39556e-14 0)
(2.9 1.04246e-13 0)
(2.9 8.72182e-14 0)
(2.9 -1.50763e-11 0)
(2.9 -7.9792e-09 0)
(2.9 -1.1067e-06 0)
(2.89996 -9.21833e-05 0)
(2.8987 -0.0032046 0)
(2.88254 -0.0402544 0)
(2.81919 -0.178395 0)
(2.70982 -0.388012 0)
(2.63128 -0.519442 0)
(2.61746 -0.524744 0)
(2.60486 -0.519073 0)
(2.60086 -0.511278 0)
(2.60337 -0.498946 0)
(2.61119 -0.495159 0)
(2.61597 -0.496968 0)
(2.61918 -0.502172 0)
(2.62055 -0.506936 0)
(2.62344 -0.508469 0)
(2.62892 -0.507765 0)
(2.63794 -0.507736 0)
(2.64691 -0.508312 0)
(2.65341 -0.510805 0)
(2.66644 -0.515122 0)
(2.67651 -0.517055 0)
(2.68572 -0.518088 0)
(2.69374 -0.519054 0)
(2.69773 -0.521701 0)
(2.69991 -0.527519 0)
(2.70094 -0.533465 0)
(2.70423 -0.53632 0)
(2.7101 -0.535453 0)
(2.71297 -0.532942 0)
(2.70794 -0.528843 0)
(2.69381 -0.527926 0)
(2.67246 -0.531547 0)
(2.65055 -0.533126 0)
(2.63077 -0.531182 0)
(2.62326 -0.530898 0)
(2.61778 -0.529964 0)
(2.61304 -0.528701 0)
(2.60963 -0.526959 0)
(2.6078 -0.523768 0)
(2.60787 -0.520978 0)
(2.60837 -0.519026 0)
(2.60911 -0.51784 0)
(2.61002 -0.516718 0)
(2.61115 -0.515847 0)
(2.6128 -0.515207 0)
(2.61562 -0.514247 0)
(2.62075 -0.512187 0)
(2.62802 -0.509117 0)
(2.63253 -0.507283 0)
(2.63325 -0.507025 0)
(2.63327 -0.50702 0)
(2.63327 -0.507022 0)
(2.63296 -0.506975 0)
(2.9 5.51382e-14 0)
(2.9 2.47506e-13 0)
(2.9 2.59134e-13 0)
(2.9 -1.12442e-11 0)
(2.9 -2.38281e-09 0)
(2.9 -4.63418e-07 0)
(2.89998 -4.15819e-05 0)
(2.8993 -0.00153628 0)
(2.88858 -0.0277873 0)
(2.82067 -0.165798 0)
(2.70824 -0.390707 0)
(2.66002 -0.446693 0)
(2.63222 -0.499273 0)
(2.62 -0.517721 0)
(2.61044 -0.520473 0)
(2.60383 -0.514467 0)
(2.60331 -0.505139 0)
(2.60853 -0.5 0)
(2.61373 -0.49908 0)
(2.61734 -0.501204 0)
(2.62142 -0.504424 0)
(2.62399 -0.504578 0)
(2.62994 -0.505536 0)
(2.6387 -0.507858 0)
(2.64569 -0.509665 0)
(2.65191 -0.513646 0)
(2.66476 -0.516862 0)
(2.6743 -0.518621 0)
(2.68436 -0.519525 0)
(2.69085 -0.520087 0)
(2.6957 -0.521751 0)
(2.69893 -0.527199 0)
(2.69884 -0.535589 0)
(2.69942 -0.540832 0)
(2.70175 -0.540163 0)
(2.70153 -0.533284 0)
(2.69499 -0.524021 0)
(2.68275 -0.519292 0)
(2.6657 -0.520818 0)
(2.64641 -0.52428 0)
(2.6277 -0.525821 0)
(2.61905 -0.526448 0)
(2.61355 -0.526821 0)
(2.60728 -0.52615 0)
(2.60347 -0.525311 0)
(2.60059 -0.523227 0)
(2.60026 -0.521159 0)
(2.60053 -0.519293 0)
(2.60128 -0.517742 0)
(2.60231 -0.516623 0)
(2.60336 -0.515531 0)
(2.60486 -0.514595 0)
(2.60773 -0.513521 0)
(2.6132 -0.511106 0)
(2.61988 -0.507832 0)
(2.6232 -0.506338 0)
(2.62357 -0.506191 0)
(2.62357 -0.506189 0)
(2.62358 -0.506191 0)
(2.62338 -0.50616 0)
(2.9 -3.7481e-14 0)
(2.9 1.36313e-13 0)
(2.9 -1.43458e-12 0)
(2.9 -1.27189e-09 0)
(2.9 -2.26485e-07 0)
(2.89999 -2.07657e-05 0)
(2.89962 -0.000894966 0)
(2.89297 -0.0171193 0)
(2.8495 -0.109278 0)
(2.69848 -0.381334 0)
(2.63837 -0.497738 0)
(2.62491 -0.504173 0)
(2.62187 -0.514737 0)
(2.62292 -0.514284 0)
(2.62014 -0.517152 0)
(2.6118 -0.515278 0)
(2.60649 -0.507212 0)
(2.60748 -0.501869 0)
(2.61111 -0.498902 0)
(2.61559 -0.49916 0)
(2.62067 -0.502007 0)
(2.62361 -0.503209 0)
(2.63013 -0.504897 0)
(2.63774 -0.508846 0)
(2.64335 -0.511777 0)
(2.6516 -0.514597 0)
(2.66404 -0.517765 0)
(2.67305 -0.520635 0)
(2.68292 -0.521535 0)
(2.68944 -0.521956 0)
(2.69548 -0.523039 0)
(2.69738 -0.527512 0)
(2.69455 -0.534689 0)
(2.69006 -0.539205 0)
(2.68678 -0.537056 0)
(2.68325 -0.529104 0)
(2.67777 -0.519302 0)
(2.66987 -0.512406 0)
(2.65939 -0.512249 0)
(2.64568 -0.515784 0)
(2.62982 -0.520281 0)
(2.6195 -0.522345 0)
(2.6147 -0.523163 0)
(2.60661 -0.523689 0)
(2.60202 -0.523539 0)
(2.59849 -0.522398 0)
(2.5976 -0.521043 0)
(2.59759 -0.519799 0)
(2.59827 -0.518404 0)
(2.59934 -0.517257 0)
(2.60059 -0.516339 0)
(2.60224 -0.515471 0)
(2.6056 -0.513697 0)
(2.61171 -0.510839 0)
(2.61801 -0.508285 0)
(2.62023 -0.50756 0)
(2.62039 -0.50751 0)
(2.6204 -0.50751 0)
(2.6204 -0.507512 0)
(2.62028 -0.50748 0)
(2.9 -4.12121e-14 0)
(2.9 -1.37348e-12 0)
(2.9 -2.66818e-10 0)
(2.9 -8.37988e-08 0)
(2.9 -1.20929e-05 0)
(2.89978 -0.000554773 0)
(2.89473 -0.0123964 0)
(2.86614 -0.0813794 0)
(2.7375 -0.329858 0)
(2.6325 -0.489203 0)
(2.61168 -0.50264 0)
(2.6134 -0.515027 0)
(2.61745 -0.512726 0)
(2.62266 -0.511529 0)
(2.62279 -0.511535 0)
(2.61861 -0.507516 0)
(2.6128 -0.503145 0)
(2.60932 -0.501012 0)
(2.60934 -0.50097 0)
(2.61188 -0.501118 0)
(2.61814 -0.501917 0)
(2.62261 -0.504554 0)
(2.62805 -0.506832 0)
(2.63644 -0.509939 0)
(2.64281 -0.512426 0)
(2.65146 -0.514984 0)
(2.66451 -0.518009 0)
(2.67396 -0.521435 0)
(2.68156 -0.523987 0)
(2.68963 -0.524814 0)
(2.69534 -0.524711 0)
(2.69594 -0.525873 0)
(2.69003 -0.531529 0)
(2.67993 -0.536336 0)
(2.67044 -0.534207 0)
(2.66508 -0.526087 0)
(2.66141 -0.51694 0)
(2.65792 -0.509622 0)
(2.65268 -0.508326 0)
(2.64424 -0.510836 0)
(2.63253 -0.51546 0)
(2.62176 -0.518929 0)
(2.61815 -0.519123 0)
(2.60962 -0.520659 0)
(2.60281 -0.521128 0)
(2.5987 -0.520911 0)
(2.59704 -0.520168 0)
(2.5968 -0.519443 0)
(2.59724 -0.518247 0)
(2.5982 -0.517352 0)
(2.59956 -0.516643 0)
(2.60151 -0.515397 0)
(2.60503 -0.513009 0)
(2.61153 -0.509812 0)
(2.61789 -0.507189 0)
(2.61966 -0.506428 0)
(2.61973 -0.5064 0)
(2.61974 -0.5064 0)
(2.61974 -0.506402 0)
(2.61966 -0.506391 0)
(2.9 4.1693e-14 0)
(2.9 -1.1559e-10 0)
(2.9 -2.73769e-08 0)
(2.9 -3.48874e-06 0)
(2.89985 -0.000353961 0)
(2.89689 -0.00762991 0)
(2.86577 -0.0756205 0)
(2.77471 -0.284452 0)
(2.68952 -0.422547 0)
(2.60692 -0.523816 0)
(2.59129 -0.529583 0)
(2.59697 -0.524881 0)
(2.61117 -0.513588 0)
(2.62207 -0.506137 0)
(2.62566 -0.500458 0)
(2.62407 -0.500188 0)
(2.61826 -0.500839 0)
(2.61136 -0.502383 0)
(2.60899 -0.503234 0)
(2.60971 -0.503399 0)
(2.61424 -0.504938 0)
(2.62075 -0.506864 0)
(2.62628 -0.508888 0)
(2.63525 -0.510657 0)
(2.64356 -0.511648 0)
(2.65193 -0.514957 0)
(2.66518 -0.518308 0)
(2.67446 -0.522202 0)
(2.68185 -0.525793 0)
(2.68827 -0.527662 0)
(2.69269 -0.526172 0)
(2.69147 -0.524529 0)
(2.68357 -0.526618 0)
(2.67036 -0.530405 0)
(2.6566 -0.528951 0)
(2.65148 -0.521624 0)
(2.64928 -0.514485 0)
(2.64812 -0.507829 0)
(2.6477 -0.504919 0)
(2.64417 -0.507138 0)
(2.63665 -0.510609 0)
(2.62495 -0.515421 0)
(2.62099 -0.516335 0)
(2.61515 -0.516871 0)
(2.60628 -0.518017 0)
(2.60022 -0.51922 0)
(2.59753 -0.519477 0)
(2.59696 -0.51926 0)
(2.59706 -0.518601 0)
(2.5978 -0.517692 0)
(2.59906 -0.516685 0)
(2.60133 -0.514937 0)
(2.60577 -0.512472 0)
(2.61282 -0.509183 0)
(2.61827 -0.506992 0)
(2.61939 -0.506597 0)
(2.61942 -0.506588 0)
(2.61942 -0.506589 0)
(2.61942 -0.50659 0)
(2.6194 -0.506589 0)
(2.9 -3.98296e-13 0)
(2.9 -1.13037e-08 0)
(2.9 -1.94971e-06 0)
(2.89995 -0.000100797 0)
(2.89774 -0.00519412 0)
(2.87588 -0.0536647 0)
(2.77284 -0.263634 0)
(2.72125 -0.391002 0)
(2.62015 -0.504005 0)
(2.59804 -0.53841 0)
(2.58981 -0.540191 0)
(2.59409 -0.532166 0)
(2.60635 -0.512197 0)
(2.62041 -0.499249 0)
(2.62431 -0.495101 0)
(2.6235 -0.495806 0)
(2.61804 -0.499494 0)
(2.61167 -0.505996 0)
(2.60953 -0.507968 0)