/*--------------------------------*- C++ -*----------------------------------*\
| =========                 |                                                 |
| \\      /  F ield         | OpenFOAM: The Open Source CFD Toolbox           |
|  \\    /   O peration     | Version:  2412                                  |
|   \\  /    A nd           | Website:  www.openfoam.com                      |
|    \\/     M anipulation  |                                                 |
\*---------------------------------------------------------------------------*/
FoamFile
{
    version     2.0;
    format      ascii;
    arch        "LSB;label=32;scalar=64";
    class       volScalarField;
    location    "0.0551578";
    object      rhoY_Y_O2;
}
// * * * * * * * * * * * * * * * * * * * * * * * * * * * * * * * * * * * * * //

dimensions      [1 -3 0 0 0 0 0];

internalField   nonuniform List<scalar> 
100
(
0
0
0
0
0
0
0
0
0
0
0
0
0
0
0
0
0
0
0
0
0
0
0
0
0
0
0
0
0
0
0
0
0
0
0
0
0
0
0
0
0
0
0
0
0
0
0
0
0
-0.260087
-0.0564905
-0.0505481
-0.0423386
-0.0371498
-0.0338253
-0.0311765
-0.0289546
-0.0274083
-0.0261918
-0.0250441
-0.0242538
-0.0233338
-0.0227025
-0.0221232
-0.0215169
-0.0208477
-0.020244
-0.019835
-0.0195317
-0.0190487
-0.0186072
-0.0183383
-0.0181263
-0.0178723
-0.0176129
-0.0173114
-0.0170107
-0.0162093
0.00964614
0.0874373
0.19452
0.297148
0.387994
0.458286
0.488655
0.489943
0.49116
0.496515
0.486529
0.45428
0.480815
0.461068
0.460557
0.462092
0.462634
0.463494
0.464381
0.464724
0.464849
0.464862
)
;

boundaryField
{
    sides
    {
        type            calculated;
        value           nonuniform List<scalar> 2(0.160357 0);
    }
    empty
    {
        type            empty;
    }
}


// ************************************************************************* //
