/*--------------------------------*- C++ -*----------------------------------*\
| =========                 |                                                 |
| \\      /  F ield         | OpenFOAM: The Open Source CFD Toolbox           |
|  \\    /   O peration     | Version:  2412                                  |
|   \\  /    A nd           | Website:  www.openfoam.com                      |
|    \\/     M anipulation  |                                                 |
\*---------------------------------------------------------------------------*/
FoamFile
{
    version     2.0;
    format      ascii;
    arch        "LSB;label=32;scalar=64";
    class       volVectorField;
    location    "0.0218189";
    object      U;
}
// * * * * * * * * * * * * * * * * * * * * * * * * * * * * * * * * * * * * * //

dimensions      [0 1 -1 0 0 0 0];

internalField   nonuniform List<vector> 
100
(
(3.40285 0 0)
(10.2877 0 0)
(17.1136 0 0)
(23.9332 0 0)
(30.7841 0 0)
(37.6253 0 0)
(44.4923 0 0)
(51.3286 0 0)
(58.1428 0 0)
(64.9769 0 0)
(71.7712 0 0)
(78.693 0 0)
(85.4218 0 0)
(92.3935 0 0)
(98.9171 0 0)
(105.909 0 0)
(112.053 0 0)
(118.745 0 0)
(125.083 0 0)
(131.935 0 0)
(138.946 0 0)
(146.201 0 0)
(154.333 0 0)
(162.469 0 0)
(171.681 0 0)
(181.442 0 0)
(194.643 0 0)
(206.994 0 0)
(213.928 0 0)
(217.203 0 0)
(220.183 0 0)
(222.141 0 0)
(224.144 0 0)
(226.927 0 0)
(230.218 0 0)
(233.756 0 0)
(238.521 0 0)
(243.726 0 0)
(247.658 0 0)
(251.229 0 0)
(254.831 0 0)
(258.544 0 0)
(262.505 0 0)
(266.325 0 0)
(269.635 0 0)
(273.584 0 0)
(277.18 0 0)
(279.89 0 0)
(282.19 0 0)
(283.981 0 0)
(284.2 0 0)
(283.774 0 0)
(283.493 0 0)
(283.048 0 0)
(282.499 0 0)
(283.271 0 0)
(284.609 0 0)
(283.805 0 0)
(280.906 0 0)
(280.656 0 0)
(286.562 0 0)
(288.474 0 0)
(280.719 0 0)
(276.522 0 0)
(281.056 0 0)
(290.773 0 0)
(291.106 0 0)
(274.559 0 0)
(271.335 0 0)
(280.349 0 0)
(292.496 0 0)
(290.212 0 0)
(274.56 0 0)
(264.872 0 0)
(168.881 0 0)
(25.5046 0 0)
(-1.14483 0 0)
(16.9048 0 0)
(25.4322 0 0)
(11.866 0 0)
(20.3328 0 0)
(14.3115 0 0)
(10.9444 0 0)
(16.4224 0 0)
(9.06551 0 0)
(3.91818 0 0)
(-3.22015 0 0)
(-8.40528 0 0)
(-16.2274 0 0)
(-13.5185 0 0)
(-8.22186 0 0)
(-0.561027 0 0)
(6.59813 0 0)
(12.5457 0 0)
(14.0258 0 0)
(9.44278 0 0)
(1.70124 0 0)
(-9.62172 0 0)
(-12.3139 0 0)
(-3.68727 0 0)
)
;

boundaryField
{
    sides
    {
        type            fixedValue;
        value           uniform (0 0 0);
    }
    empty
    {
        type            empty;
    }
}


// ************************************************************************* //
