/*--------------------------------*- C++ -*----------------------------------*\
| =========                 |                                                 |
| \\      /  F ield         | OpenFOAM: The Open Source CFD Toolbox           |
|  \\    /   O peration     | Version:  2412                                  |
|   \\  /    A nd           | Website:  www.openfoam.com                      |
|    \\/     M anipulation  |                                                 |
\*---------------------------------------------------------------------------*/
FoamFile
{
    version     2.0;
    format      ascii;
    arch        "LSB;label=32;scalar=64";
    class       surfaceScalarField;
    location    "0.0203532";
    object      phiRhoY_Y_N2;
}
// * * * * * * * * * * * * * * * * * * * * * * * * * * * * * * * * * * * * * //

dimensions      [1 0 -1 0 0 0 0];

internalField   nonuniform List<scalar> 
99
(
19.5311
39.0061
58.4858
77.9422
97.396
116.923
136.463
155.84
174.797
193.168
211.173
229.334
248.413
268.499
290.117
315.172
344.629
376.984
410.271
444.111
472.745
479.89
478.521
475.52
473.343
473.44
474.768
480.644
488.327
492.731
495.183
497.407
499.797
502.44
505.075
507.429
509.388
511.155
512.92
514.7
516.299
517.233
517.838
519.038
520.882
521.032
520.739
521.872
522.486
521.799
521.601
521.605
521.653
523.809
524.576
519.536
514.191
520.43
535.693
535.345
503.537
497.424
525.665
559.124
544.667
484.445
480.433
531.073
579.683
552.788
473.996
468.5
521.066
580.578
568.499
482.018
438.357
185.378
46.9715
76.6291
103.549
82.8946
39.6917
26.1514
39.7137
61.8347
81.9533
82.2525
51.76
15.0407
-3.68462
-2.76221
-0.652866
-0.0617634
0.00175338
0.000219196
-4.48081e-06
-1.06637e-07
0
)
;

boundaryField
{
    sides
    {
        type            calculated;
        value           uniform 0;
    }
    empty
    {
        type            empty;
    }
}


// ************************************************************************* //
