/*--------------------------------*- C++ -*----------------------------------*\
| =========                 |                                                 |
| \\      /  F ield         | OpenFOAM: The Open Source CFD Toolbox           |
|  \\    /   O peration     | Version:  2412                                  |
|   \\  /    A nd           | Website:  www.openfoam.com                      |
|    \\/     M anipulation  |                                                 |
\*---------------------------------------------------------------------------*/
FoamFile
{
    version     2.0;
    format      ascii;
    arch        "LSB;label=32;scalar=64";
    class       volScalarField;
    location    "0.0226527";
    object      rho;
}
// * * * * * * * * * * * * * * * * * * * * * * * * * * * * * * * * * * * * * //

dimensions      [1 -3 0 0 0 0 0];

internalField   nonuniform List<scalar> 
100
(
0.552735
0.552759
0.552886
0.552925
0.552871
0.552663
0.552324
0.551978
0.551593
0.551265
0.55086
0.550507
0.549971
0.5494
0.548895
0.548271
0.54803
0.546972
0.546475
0.545099
0.543687
0.542191
0.540792
0.540044
0.539111
0.539564
0.539919
0.541144
0.541724
0.545556
0.55726
0.570454
0.56779
0.559642
0.55147
0.542201
0.530845
0.52147
0.514202
0.507406
0.501222
0.497918
0.492419
0.485837
0.480815
0.475863
0.469221
0.46375
0.461813
0.460292
0.459262
0.459936
0.46068
0.460254
0.461009
0.462845
0.46049
0.455502
0.458756
0.471083
0.469766
0.447372
0.439664
0.46892
0.494317
0.47327
0.424258
0.425505
0.490318
0.523415
0.473816
0.404038
0.503045
0.959103
1.06063
1.05681
1.04485
0.987579
1.00299
1.01804
1.02501
1.05698
1.06244
1.08412
1.09482
1.09303
1.10815
1.14069
1.12595
1.05122
0.950606
0.882579
0.8586
0.864433
0.891453
0.912982
0.919213
0.904263
0.879383
0.854358
)
;

boundaryField
{
    sides
    {
        type            calculated;
        value           nonuniform List<scalar> 2(0.854358 0.552735);
    }
    empty
    {
        type            empty;
    }
}


// ************************************************************************* //
