/*--------------------------------*- C++ -*----------------------------------*\
| =========                 |                                                 |
| \\      /  F ield         | OpenFOAM: The Open Source CFD Toolbox           |
|  \\    /   O peration     | Version:  2412                                  |
|   \\  /    A nd           | Website:  www.openfoam.com                      |
|    \\/     M anipulation  |                                                 |
\*---------------------------------------------------------------------------*/
FoamFile
{
    version     2.0;
    format      ascii;
    arch        "LSB;label=32;scalar=64";
    class       volVectorField;
    location    "4.17173e-05";
    object      U;
}
// * * * * * * * * * * * * * * * * * * * * * * * * * * * * * * * * * * * * * //

dimensions      [0 1 -1 0 0 0 0];

internalField   nonuniform List<vector> 
1800
(
(2.9 -1.98619e-14 0)
(2.9 1.80183e-14 0)
(2.9 3.20032e-14 0)
(2.9 -2.71964e-14 0)
(2.9 -2.49006e-14 0)
(2.9 -5.26082e-14 0)
(2.9 -6.02771e-14 0)
(2.9 -2.60969e-14 0)
(2.9 -1.72689e-14 0)
(2.9 -1.2146e-14 0)
(2.9 3.58805e-15 0)
(2.9 -1.64172e-14 0)
(2.9 -3.11231e-14 0)
(2.9 -9.34952e-15 0)
(2.9 -5.9951e-14 0)
(2.9 -2.4799e-16 0)
(2.9 1.03062e-15 0)
(2.9 -1.2197e-14 0)
(2.9 -3.13095e-14 0)
(2.9 1.18298e-14 0)
(2.9 -2.59072e-14 0)
(2.9 -4.8597e-15 0)
(2.9 -9.02904e-15 0)
(2.9 7.8399e-15 0)
(2.9 2.94852e-16 0)
(2.9 -3.28509e-14 0)
(2.9 -2.98131e-14 0)
(2.9 -1.36502e-14 0)
(2.9 3.44532e-14 0)
(2.9 6.98666e-14 0)
(2.9 2.39546e-14 0)
(2.9 4.32282e-14 0)
(2.9 -1.54411e-14 0)
(2.9 -3.29143e-14 0)
(2.9 1.41143e-14 0)
(2.9 7.88757e-16 0)
(2.9 1.20103e-14 0)
(2.9 2.88946e-14 0)
(2.9 4.83638e-15 0)
(2.9 -9.35797e-16 0)
(2.9 -1.37719e-14 0)
(2.9 2.28557e-14 0)
(2.9 -2.10293e-15 0)
(2.9 -1.03978e-15 0)
(2.9 -3.29136e-14 0)
(2.9 2.1025e-15 0)
(2.9 5.07607e-14 0)
(2.9 7.66976e-14 0)
(2.9 2.06793e-14 0)
(2.9 2.59629e-14 0)
(2.9 3.14789e-15 0)
(2.9 6.18805e-15 0)
(2.9 2.80251e-14 0)
(2.9 8.08092e-16 0)
(2.9 8.21472e-15 0)
(2.9 1.24565e-14 0)
(2.9 -2.04426e-14 0)
(2.9 2.34733e-15 0)
(2.9 -2.98667e-14 0)
(2.9 -5.08476e-14 0)
(2.9 -6.79159e-14 0)
(2.9 1.31287e-14 0)
(2.9 -6.2363e-15 0)
(2.9 -3.92406e-14 0)
(2.9 -5.70786e-14 0)
(2.9 -1.38326e-13 0)
(2.9 -1.13953e-13 0)
(2.9 -1.08364e-13 0)
(2.9 -3.41195e-14 0)
(2.9 -1.46643e-14 0)
(2.9 3.58082e-14 0)
(2.9 -5.48429e-15 0)
(2.9 -5.35219e-15 0)
(2.9 7.08835e-16 0)
(2.9 -1.76589e-14 0)
(2.9 2.98366e-14 0)
(2.9 9.4552e-16 0)
(2.9 -1.068e-14 0)
(2.9 -6.2032e-14 0)
(2.9 -6.14163e-15 0)
(2.9 -5.80161e-14 0)
(2.9 -2.91023e-14 0)
(2.9 2.22219e-14 0)
(2.9 4.70185e-14 0)
(2.9 -3.05784e-14 0)
(2.9 -8.90615e-14 0)
(2.9 -1.02513e-13 0)
(2.9 -5.96617e-14 0)
(2.9 6.11965e-14 0)
(2.9 8.14014e-14 0)
(2.9 3.31727e-14 0)
(2.9 4.35276e-14 0)
(2.9 -3.26557e-14 0)
(2.9 -1.04686e-13 0)
(2.9 -1.24556e-14 0)
(2.9 -2.16818e-14 0)
(2.9 3.63377e-14 0)
(2.9 5.27569e-14 0)
(2.9 6.70171e-15 0)
(2.9 -1.34975e-14 0)
(2.9 -6.50773e-15 0)
(2.9 4.09473e-14 0)
(2.9 -7.70085e-15 0)
(2.9 -5.92703e-15 0)
(2.9 -8.41127e-15 0)
(2.9 -4.14788e-15 0)
(2.9 7.08012e-14 0)
(2.9 5.35387e-14 0)
(2.9 3.79111e-14 0)
(2.9 7.89863e-14 0)
(2.9 3.36753e-15 0)
(2.9 -2.69386e-14 0)
(2.9 2.02125e-14 0)
(2.9 -4.89358e-15 0)
(2.9 3.75212e-15 0)
(2.9 1.49926e-14 0)
(2.9 -4.87034e-14 0)
(2.9 2.86577e-15 0)
(2.9 -1.27712e-13 0)
(2.9 -6.64612e-14 0)
(2.9 -6.79269e-15 0)
(2.9 2.63643e-15 0)
(2.9 -2.52882e-14 0)
(2.9 2.34802e-15 0)
(2.9 -1.76402e-14 0)
(2.9 -6.77056e-14 0)
(2.9 -6.59797e-14 0)
(2.9 -3.95865e-14 0)
(2.9 1.56743e-14 0)
(2.9 -5.10778e-14 0)
(2.9 -5.4745e-15 0)
(2.9 -1.38299e-14 0)
(2.9 5.96538e-15 0)
(2.9 -2.79423e-14 0)
(2.9 9.38417e-15 0)
(2.9 6.94334e-14 0)
(2.9 2.12937e-14 0)
(2.9 1.40765e-14 0)
(2.9 2.10455e-14 0)
(2.9 -4.72198e-14 0)
(2.9 1.35165e-15 0)
(2.9 2.109e-14 0)
(2.9 2.93589e-14 0)
(2.9 3.13275e-14 0)
(2.9 -6.12978e-14 0)
(2.9 -9.50503e-14 0)
(2.9 -3.32094e-14 0)
(2.9 -2.38175e-14 0)
(2.9 3.38279e-14 0)
(2.9 -1.38901e-14 0)
(2.9 -1.45992e-14 0)
(2.9 -1.4807e-14 0)
(2.9 -4.4016e-14 0)
(2.9 -5.8472e-14 0)
(2.9 -4.35966e-14 0)
(2.9 -3.2207e-14 0)
(2.9 3.61958e-15 0)
(2.9 2.72587e-14 0)
(2.9 -7.55462e-15 0)
(2.9 -2.8807e-14 0)
(2.9 -1.76946e-14 0)
(2.9 -2.79098e-14 0)
(2.9 -8.08074e-15 0)
(2.9 -2.63008e-14 0)
(2.9 1.54001e-14 0)
(2.9 4.98605e-15 0)
(2.9 2.99568e-14 0)
(2.9 1.16102e-14 0)
(2.9 1.87273e-15 0)
(2.9 1.42874e-14 0)
(2.9 -3.01123e-14 0)
(2.9 -1.3688e-14 0)
(2.9 2.30155e-16 0)
(2.9 -1.35206e-14 0)
(2.9 -1.28435e-15 0)
(2.9 -2.65443e-14 0)
(2.9 1.56033e-14 0)
(2.9 2.5484e-14 0)
(2.9 -5.47724e-14 0)
(2.9 -2.34971e-14 0)
(2.9 5.90239e-15 0)
(2.9 -3.70719e-14 0)
(2.9 1.6329e-14 0)
(2.9 -1.99734e-15 0)
(2.9 -2.40614e-14 0)
(2.9 -3.3292e-14 0)
(2.9 -7.56046e-14 0)
(2.9 -4.37433e-14 0)
(2.9 -8.64834e-16 0)
(2.9 -5.85212e-14 0)
(2.9 -3.33464e-14 0)
(2.9 -3.04679e-14 0)
(2.9 -1.31488e-14 0)
(2.9 -2.43279e-14 0)
(2.9 2.06677e-14 0)
(2.9 2.68502e-14 0)
(2.9 2.06788e-15 0)
(2.9 3.01624e-14 0)
(2.9 3.45893e-14 0)
(2.9 -5.49547e-15 0)
(2.9 5.5385e-14 0)
(2.9 4.71078e-14 0)
(2.9 -2.03915e-14 0)
(2.9 -1.21708e-14 0)
(2.9 -3.65929e-14 0)
(2.9 -3.00056e-14 0)
(2.9 4.23762e-14 0)
(2.9 -1.3293e-15 0)
(2.9 -9.84649e-15 0)
(2.9 9.57392e-15 0)
(2.9 9.59305e-15 0)
(2.9 2.51642e-14 0)
(2.9 -1.35835e-14 0)
(2.9 7.33452e-15 0)
(2.9 -2.61296e-14 0)
(2.9 4.6331e-15 0)
(2.9 3.58968e-14 0)
(2.9 3.03291e-14 0)
(2.9 -6.9632e-17 0)
(2.9 -3.78839e-14 0)
(2.9 -6.20157e-15 0)
(2.9 -4.02063e-14 0)
(2.9 -2.08616e-14 0)
(2.9 -2.74203e-14 0)
(2.9 -3.26923e-15 0)
(2.9 -2.27166e-14 0)
(2.9 -2.41173e-14 0)
(2.9 -7.53388e-15 0)
(2.9 -2.93662e-14 0)
(2.9 -4.167e-14 0)
(2.9 -1.69603e-14 0)
(2.9 -2.06629e-15 0)
(2.9 3.38022e-14 0)
(2.9 2.21743e-14 0)
(2.9 1.20708e-14 0)
(2.9 -9.89747e-15 0)
(2.9 2.91173e-14 0)
(2.9 8.43646e-15 0)
(2.9 2.61912e-14 0)
(2.9 4.64937e-14 0)
(2.9 -6.98859e-15 0)
(2.9 -9.28457e-14 0)
(2.9 2.25157e-15 0)
(2.9 -2.8886e-14 0)
(2.9 1.35854e-14 0)
(2.9 -2.25332e-14 0)
(2.9 -4.91847e-14 0)
(2.9 -5.55613e-14 0)
(2.9 -7.23768e-15 0)
(2.9 -2.22282e-14 0)
(2.9 -1.81814e-14 0)
(2.9 -3.5905e-14 0)
(2.9 -1.46028e-14 0)
(2.9 1.39633e-14 0)
(2.9 -1.02322e-14 0)
(2.9 -7.88525e-15 0)
(2.9 -2.10087e-14 0)
(2.9 -1.49344e-14 0)
(2.9 1.95175e-14 0)
(2.9 3.32014e-14 0)
(2.9 3.67521e-14 0)
(2.9 2.35766e-14 0)
(2.9 -4.91173e-14 0)
(2.9 -5.78944e-14 0)
(2.9 6.58668e-15 0)
(2.9 6.13167e-15 0)
(2.9 6.04114e-14 0)
(2.9 -5.00671e-15 0)
(2.9 -7.16542e-14 0)
(2.9 1.70143e-14 0)
(2.9 2.98822e-14 0)
(2.9 6.65667e-14 0)
(2.9 3.67178e-14 0)
(2.9 5.02467e-14 0)
(2.9 6.94008e-15 0)
(2.9 1.91093e-14 0)
(2.9 1.3317e-14 0)
(2.9 2.89878e-14 0)
(2.9 -2.70583e-15 0)
(2.9 -3.67705e-14 0)
(2.9 -1.69676e-14 0)
(2.9 -2.96805e-14 0)
(2.9 -8.00629e-14 0)
(2.9 3.24119e-15 0)
(2.9 3.90428e-14 0)
(2.9 -5.53072e-14 0)
(2.9 -2.59891e-14 0)
(2.9 -1.13595e-14 0)
(2.9 -2.15756e-14 0)
(2.9 -4.56306e-15 0)
(2.9 1.22036e-14 0)
(2.9 1.21876e-14 0)
(2.9 1.66419e-15 0)
(2.9 2.27399e-14 0)
(2.9 4.8252e-14 0)
(2.9 2.47845e-14 0)
(2.9 6.87125e-16 0)
(2.9 2.81497e-14 0)
(2.9 9.78213e-15 0)
(2.9 6.37601e-14 0)
(2.9 2.53053e-15 0)
(2.9 -3.33372e-14 0)
(2.9 -1.81496e-14 0)
(2.9 -4.82856e-15 0)
(2.9 3.62196e-14 0)
(2.9 -2.47523e-15 0)
(2.9 2.40611e-14 0)
(2.9 3.21756e-14 0)
(2.9 -2.61383e-14 0)
(2.9 -3.79829e-14 0)
(2.9 -8.17061e-14 0)
(2.9 1.08902e-14 0)
(2.9 4.16738e-14 0)
(2.9 3.93149e-14 0)
(2.9 2.22885e-14 0)
(2.9 -1.76007e-14 0)
(2.9 -2.83258e-14 0)
(2.9 8.91912e-15 0)
(2.9 3.78421e-14 0)
(2.9 1.3907e-14 0)
(2.9 -1.00079e-14 0)
(2.9 -3.78559e-14 0)
(2.9 -1.32679e-14 0)
(2.9 -4.03735e-15 0)
(2.9 1.40458e-14 0)
(2.9 1.24868e-14 0)
(2.9 3.66907e-14 0)
(2.9 4.8756e-15 0)
(2.9 -3.8395e-15 0)
(2.9 -3.01669e-15 0)
(2.9 -1.60154e-14 0)
(2.9 2.12798e-14 0)
(2.9 7.41363e-15 0)
(2.9 9.93412e-15 0)
(2.9 -1.88853e-14 0)
(2.9 -4.43736e-14 0)
(2.9 -5.76288e-14 0)
(2.9 -3.1597e-14 0)
(2.9 -3.79229e-14 0)
(2.9 -8.55708e-15 0)
(2.9 -7.32786e-14 0)
(2.9 -4.18625e-14 0)
(2.9 -6.59206e-14 0)
(2.9 -7.04071e-15 0)
(2.9 -1.19775e-14 0)
(2.9 4.0541e-14 0)
(2.9 -8.79706e-15 0)
(2.9 -3.02387e-14 0)
(2.9 -1.21651e-14 0)
(2.9 2.74657e-15 0)
(2.9 2.24136e-14 0)
(2.9 6.31684e-15 0)
(2.9 -4.31017e-14 0)
(2.9 -8.82477e-15 0)
(2.9 -4.19641e-15 0)
(2.9 3.20075e-14 0)
(2.9 1.60634e-14 0)
(2.9 1.8868e-14 0)
(2.9 -2.33182e-14 0)
(2.9 1.43354e-15 0)
(2.9 -2.02808e-14 0)
(2.9 1.38301e-14 0)
(2.9 -7.12524e-14 0)
(2.9 4.68443e-15 0)
(2.9 8.00246e-14 0)
(2.9 3.59897e-14 0)
(2.9 4.44969e-14 0)
(2.9 6.28048e-14 0)
(2.9 -1.37752e-14 0)
(2.9 -1.52357e-14 0)
(2.9 -3.49468e-14 0)
(2.9 -8.70957e-15 0)
(2.9 -2.91907e-15 0)
(2.9 3.3008e-15 0)
(2.9 5.8695e-15 0)
(2.9 7.66243e-15 0)
(2.9 -2.55105e-14 0)
(2.9 2.08971e-14 0)
(2.9 -6.80338e-15 0)
(2.9 3.97452e-16 0)
(2.9 -5.5062e-14 0)
(2.9 -6.68755e-14 0)
(2.9 4.96911e-15 0)
(2.9 -1.34599e-14 0)
(2.9 -1.62539e-15 0)
(2.9 1.64864e-14 0)
(2.9 3.74806e-14 0)
(2.9 1.15042e-14 0)
(2.9 4.84037e-14 0)
(2.9 1.31819e-14 0)
(2.9 -3.57814e-14 0)
(2.9 4.73131e-15 0)
(2.9 6.27842e-15 0)
(2.9 -1.00625e-14 0)
(2.9 -1.77844e-14 0)
(2.9 -9.42231e-14 0)
(2.9 -7.47097e-14 0)
(2.9 -5.10512e-14 0)
(2.9 -5.68296e-14 0)
(2.9 -3.34664e-14 0)
(2.9 -7.52339e-14 0)
(2.9 2.02375e-14 0)
(2.9 4.58737e-14 0)
(2.9 3.65771e-14 0)
(2.9 2.0885e-14 0)
(2.9 3.82231e-15 0)
(2.9 -4.29688e-14 0)
(2.9 -4.55858e-15 0)
(2.9 -2.08369e-14 0)
(2.9 -4.90605e-15 0)
(2.9 2.33245e-14 0)
(2.9 -1.40684e-14 0)
(2.9 -3.07331e-14 0)
(2.9 -2.91971e-14 0)
(2.9 -5.21654e-14 0)
(2.9 -3.39999e-14 0)
(2.9 -1.55485e-15 0)
(2.9 5.71312e-16 0)
(2.9 -3.5903e-14 0)
(2.9 -1.55797e-14 0)
(2.9 6.80344e-15 0)
(2.9 6.55195e-14 0)
(2.9 -4.80844e-14 0)
(2.9 -1.58372e-14 0)
(2.9 1.2358e-14 0)
(2.9 4.82636e-14 0)
(2.9 8.06126e-14 0)
(2.9 5.32233e-15 0)
(2.9 2.52535e-14 0)
(2.9 -5.36335e-15 0)
(2.9 -3.63527e-14 0)
(2.9 -5.51906e-14 0)
(2.9 -3.46534e-14 0)
(2.9 -6.13648e-14 0)
(2.9 -2.78441e-14 0)
(2.9 3.60566e-14 0)
(2.9 2.24452e-14 0)
(2.9 8.68402e-15 0)
(2.9 -3.53386e-14 0)
(2.9 -5.76269e-14 0)
(2.9 -1.70869e-14 0)
(2.9 3.16435e-15 0)
(2.9 3.94323e-14 0)
(2.9 8.95141e-15 0)
(2.9 1.2851e-14 0)
(2.9 9.25091e-15 0)
(2.9 3.25966e-14 0)
(2.9 1.77145e-14 0)
(2.9 5.41815e-14 0)
(2.9 -1.31258e-14 0)
(2.9 -5.66162e-15 0)
(2.9 4.10911e-14 0)
(2.9 2.95954e-14 0)
(2.9 2.80061e-14 0)
(2.9 -2.86039e-14 0)
(2.9 -5.45919e-14 0)
(2.9 -1.22838e-14 0)
(2.9 -1.71953e-15 0)
(2.9 -1.19068e-15 0)
(2.9 -3.28852e-14 0)
(2.9 1.72125e-14 0)
(2.9 4.74957e-14 0)
(2.9 7.12805e-14 0)
(2.9 7.70986e-14 0)
(2.9 8.67223e-15 0)
(2.9 -4.03081e-14 0)
(2.9 -1.9966e-14 0)
(2.9 3.61795e-15 0)
(2.9 -1.63479e-14 0)
(2.9 -2.7288e-14 0)
(2.9 1.87784e-14 0)
(2.9 -1.0639e-14 0)
(2.9 -3.0735e-14 0)
(2.9 -4.42522e-14 0)
(2.9 -4.53224e-14 0)
(2.9 -2.33117e-14 0)
(2.9 -3.45062e-14 0)
(2.9 1.51188e-14 0)
(2.9 -9.44902e-15 0)
(2.9 -1.92051e-14 0)
(2.9 -9.91801e-15 0)
(2.9 5.95329e-14 0)
(2.9 1.02312e-14 0)
(2.9 -1.22103e-14 0)
(2.9 -4.75912e-14 0)
(2.9 2.01796e-14 0)
(2.9 4.38622e-14 0)
(2.9 -1.67175e-14 0)
(2.9 1.5164e-14 0)
(2.9 2.05963e-15 0)
(2.9 -1.84731e-14 0)
(2.9 -6.96584e-14 0)
(2.9 -5.14015e-14 0)
(2.9 -5.68966e-14 0)
(2.9 -4.4457e-14 0)
(2.9 2.5258e-15 0)
(2.9 3.16821e-14 0)
(2.9 1.46881e-14 0)
(2.9 -6.15971e-15 0)
(2.9 -9.11437e-14 0)
(2.9 6.23425e-15 0)
(2.9 5.70235e-14 0)
(2.9 -2.42844e-15 0)
(2.9 4.29802e-15 0)
(2.9 3.11958e-14 0)
(2.9 1.02646e-14 0)
(2.9 3.19771e-14 0)
(2.9 1.24686e-14 0)
(2.9 8.29876e-14 0)
(2.9 5.81292e-15 0)
(2.9 1.09991e-14 0)
(2.9 3.83181e-15 0)
(2.9 3.98373e-14 0)
(2.9 -3.49606e-15 0)
(2.9 -4.61542e-14 0)
(2.9 3.19331e-14 0)
(2.9 3.7093e-14 0)
(2.9 3.25455e-14 0)
(2.9 3.41346e-14 0)
(2.9 8.5998e-15 0)
(2.9 3.47864e-15 0)
(2.9 6.15451e-14 0)
(2.9 5.77964e-14 0)
(2.9 4.46254e-14 0)
(2.9 4.17402e-14 0)
(2.9 3.12805e-14 0)
(2.9 -2.00012e-14 0)
(2.9 -3.75568e-15 0)
(2.9 3.33479e-14 0)
(2.9 -4.53208e-14 0)
(2.9 7.8543e-15 0)
(2.9 5.07016e-14 0)
(2.9 -1.62907e-14 0)
(2.9 -5.10146e-14 0)
(2.9 1.6284e-14 0)
(2.9 -2.40618e-14 0)
(2.9 -2.83237e-14 0)
(2.9 -1.34155e-14 0)
(2.9 -6.83355e-15 0)
(2.9 -5.53796e-15 0)
(2.9 -3.08229e-14 0)
(2.9 -8.25379e-15 0)
(2.9 1.50136e-14 0)
(2.9 2.70688e-14 0)
(2.9 2.19769e-14 0)
(2.9 5.10929e-15 0)
(2.9 8.77316e-15 0)
(2.9 -1.02776e-14 0)
(2.9 1.50972e-14 0)
(2.9 3.93417e-14 0)
(2.9 1.17934e-14 0)
(2.9 -1.65837e-14 0)
(2.9 -8.64543e-14 0)
(2.9 -1.30036e-14 0)
(2.9 -3.23775e-14 0)
(2.9 -3.65493e-15 0)
(2.9 3.44645e-14 0)
(2.9 4.81149e-14 0)
(2.9 -7.83964e-16 0)
(2.9 -3.50468e-14 0)
(2.9 -1.55021e-14 0)
(2.9 6.33698e-15 0)
(2.9 -1.97956e-14 0)
(2.9 -2.13299e-14 0)
(2.9 -3.32302e-15 0)
(2.9 5.71832e-15 0)
(2.9 2.15554e-14 0)
(2.9 1.34982e-14 0)
(2.9 1.04096e-14 0)
(2.9 4.41071e-14 0)
(2.9 1.46652e-14 0)
(2.9 -4.41768e-14 0)
(2.9 6.84342e-14 0)
(2.9 -1.10367e-14 0)
(2.9 1.24567e-15 0)
(2.9 4.81223e-14 0)
(2.9 3.69038e-14 0)
(2.9 2.72614e-14 0)
(2.9 1.50988e-14 0)
(2.9 4.37657e-14 0)
(2.9 1.777e-14 0)
(2.9 1.33611e-14 0)
(2.9 2.04466e-14 0)
(2.9 2.43818e-15 0)
(2.9 2.28897e-14 0)
(2.9 4.31812e-14 0)
(2.9 -1.52424e-14 0)
(2.9 -1.58154e-14 0)
(2.9 2.42095e-14 0)
(2.9 4.46402e-14 0)
(2.9 -1.75497e-14 0)
(2.9 3.60105e-14 0)
(2.9 1.15005e-15 0)
(2.9 -3.65748e-14 0)
(2.9 4.3561e-14 0)
(2.9 -3.28821e-14 0)
(2.9 -3.17805e-14 0)
(2.9 -3.84711e-14 0)
(2.9 -1.85366e-14 0)
(2.9 2.09287e-15 0)
(2.9 -5.70133e-14 0)
(2.9 -2.8039e-14 0)
(2.9 5.27672e-14 0)
(2.9 -5.83565e-16 0)
(2.9 -1.08648e-14 0)
(2.9 -1.71835e-14 0)
(2.9 1.74132e-14 0)
(2.9 5.6054e-14 0)
(2.9 3.40485e-14 0)
(2.9 -1.14808e-14 0)
(2.9 2.61986e-14 0)
(2.9 5.38978e-14 0)
(2.9 -7.6725e-15 0)
(2.9 3.44632e-14 0)
(2.9 3.19122e-14 0)
(2.9 2.89639e-14 0)
(2.9 4.61685e-16 0)
(2.9 2.48035e-14 0)
(2.9 4.16432e-14 0)
(2.9 -8.30878e-15 0)
(2.9 -5.82842e-14 0)
(2.9 1.77875e-15 0)
(2.9 -1.64368e-15 0)
(2.9 4.65292e-14 0)
(2.9 -3.53106e-14 0)
(2.9 -2.39811e-14 0)
(2.9 -2.59519e-14 0)
(2.9 5.72888e-14 0)
(2.9 -2.34882e-14 0)
(2.9 -5.77804e-15 0)
(2.9 -2.75917e-14 0)
(2.9 -9.99683e-14 0)
(2.9 -1.35803e-14 0)
(2.9 -6.30959e-15 0)
(2.9 -2.36879e-14 0)
(2.9 1.05982e-14 0)
(2.9 8.84292e-15 0)
(2.9 -1.8416e-14 0)
(2.9 1.12425e-14 0)
(2.9 -1.40705e-14 0)
(2.9 2.93261e-14 0)
(2.9 -2.81153e-14 0)
(2.9 -3.22644e-15 0)
(2.9 -1.58782e-14 0)
(2.9 -2.22722e-14 0)
(2.9 1.71917e-14 0)
(2.9 -4.57035e-14 0)
(2.9 -7.48326e-15 0)
(2.9 1.00608e-14 0)
(2.9 7.54168e-14 0)
(2.9 -3.47709e-14 0)
(2.9 -1.02461e-14 0)
(2.9 4.58851e-16 0)
(2.9 -6.10014e-15 0)
(2.9 1.7831e-14 0)
(2.9 8.88362e-15 0)
(2.9 -3.89735e-14 0)
(2.9 -7.63532e-14 0)
(2.9 2.49963e-14 0)
(2.9 3.30914e-14 0)
(2.9 -1.62254e-14 0)
(2.9 1.93051e-14 0)
(2.9 2.47745e-14 0)
(2.9 -2.10672e-14 0)
(2.9 -1.7827e-14 0)
(2.9 -1.57992e-14 0)
(2.9 7.87615e-15 0)
(2.9 6.99876e-14 0)
(2.9 4.44805e-14 0)
(2.9 -6.01064e-14 0)
(2.9 2.40526e-14 0)
(2.9 3.95499e-14 0)
(2.9 2.43125e-14 0)
(2.9 -1.95754e-14 0)
(2.9 -1.30054e-14 0)
(2.9 2.09803e-14 0)
(2.9 -5.12323e-14 0)
(2.9 -5.23388e-14 0)
(2.9 8.18045e-15 0)
(2.9 2.54414e-14 0)
(2.9 -7.52515e-15 0)
(2.9 -2.80521e-14 0)
(2.9 -1.99663e-14 0)
(2.9 2.19296e-14 0)
(2.9 -4.27255e-14 0)
(2.9 2.35314e-15 0)
(2.9 -3.54233e-14 0)
(2.9 8.82838e-15 0)
(2.9 -2.96008e-14 0)
(2.9 -1.6324e-14 0)
(2.9 -2.03838e-14 0)
(2.9 -5.33569e-14 0)
(2.9 -5.2908e-14 0)
(2.9 -2.68172e-14 0)
(2.9 1.16794e-14 0)
(2.9 -5.41912e-15 0)
(2.9 -2.56686e-14 0)
(2.9 3.73566e-14 0)
(2.9 -2.10667e-15 0)
(2.9 -4.08621e-14 0)
(2.9 5.87596e-14 0)
(2.9 -2.28962e-14 0)
(2.9 -1.65286e-15 0)
(2.9 -2.32521e-14 0)
(2.9 3.23186e-15 0)
(2.9 -1.52755e-14 0)
(2.9 1.14395e-14 0)
(2.9 -1.60892e-14 0)
(2.9 -2.64914e-14 0)
(2.9 5.61192e-16 0)
(2.9 -4.38087e-14 0)
(2.9 -1.79234e-14 0)
(2.9 -1.07552e-14 0)
(2.9 3.26987e-15 0)
(2.9 -3.24068e-14 0)
(2.9 -3.45639e-14 0)
(2.9 -3.65134e-14 0)
(2.9 -6.74476e-14 0)
(2.9 3.97975e-14 0)
(2.9 7.63137e-16 0)
(2.9 4.44874e-14 0)
(2.9 2.36835e-14 0)
(2.9 -1.64386e-14 0)
(2.9 4.82184e-14 0)
(2.9 -1.15435e-14 0)
(2.9 8.86095e-15 0)
(2.9 -1.07078e-14 0)
(2.9 -1.07071e-14 0)
(2.9 -2.5408e-14 0)
(2.9 -1.38508e-14 0)
(2.9 1.40934e-14 0)
(2.9 -2.67669e-14 0)
(2.9 -1.34508e-14 0)
(2.9 -1.80827e-14 0)
(2.9 -1.22324e-14 0)
(2.9 -4.96482e-14 0)
(2.9 -1.55825e-14 0)
(2.9 -3.81553e-14 0)
(2.9 -3.64159e-14 0)
(2.9 5.34301e-14 0)
(2.9 5.77516e-16 0)
(2.9 -9.46771e-15 0)
(2.9 -4.32461e-15 0)
(2.9 -2.41613e-14 0)
(2.9 -5.76523e-14 0)
(2.9 3.85861e-14 0)
(2.9 -1.77764e-14 0)
(2.9 -2.79058e-14 0)
(2.9 -3.25535e-14 0)
(2.9 9.82607e-15 0)
(2.9 -6.12554e-15 0)
(2.9 7.33958e-15 0)
(2.9 -6.15381e-14 0)
(2.9 -1.10731e-14 0)
(2.9 2.90756e-14 0)
(2.9 -1.79218e-14 0)
(2.9 -2.87859e-14 0)
(2.9 1.57445e-14 0)
(2.9 -2.89757e-14 0)
(2.9 1.79763e-14 0)
(2.9 6.56481e-14 0)
(2.9 4.82561e-15 0)
(2.9 -1.62719e-14 0)
(2.9 -7.12853e-15 0)
(2.9 -8.70835e-15 0)
(2.9 9.95844e-15 0)
(2.9 5.64604e-15 0)
(2.9 -4.16548e-14 0)
(2.9 -2.92364e-14 0)
(2.9 -1.37305e-14 0)
(2.9 -3.88191e-14 0)
(2.9 -2.56794e-14 0)
(2.9 1.913e-14 0)
(2.9 2.16262e-14 0)
(2.9 1.37961e-14 0)
(2.9 -1.65838e-14 0)
(2.9 -3.34455e-14 0)
(2.9 7.51665e-15 0)
(2.9 2.51915e-14 0)
(2.9 -2.37373e-15 0)
(2.9 2.35973e-14 0)
(2.9 -8.32114e-15 0)
(2.9 -3.38071e-14 0)
(2.9 2.09903e-14 0)
(2.9 -5.06042e-14 0)
(2.9 -1.60159e-14 0)
(2.9 1.10118e-14 0)
(2.9 -7.00607e-14 0)
(2.9 -1.69464e-14 0)
(2.9 2.08192e-14 0)
(2.9 2.46873e-14 0)
(2.9 -5.18983e-14 0)
(2.9 1.96555e-14 0)
(2.9 2.25639e-14 0)
(2.9 -6.27222e-14 0)
(2.9 -7.94714e-14 0)
(2.9 1.42439e-14 0)
(2.9 4.18359e-14 0)
(2.9 -3.36684e-14 0)
(2.9 2.92256e-14 0)
(2.9 2.43015e-14 0)
(2.9 3.29103e-14 0)
(2.9 8.37209e-15 0)
(2.9 -2.99021e-14 0)
(2.9 2.06849e-14 0)
(2.9 -8.27202e-15 0)
(2.9 -4.75227e-14 0)
(2.9 -1.31988e-13 0)
(2.9 -7.54771e-14 0)
(2.9 1.83716e-14 0)
(2.9 -2.72876e-14 0)
(2.9 -2.59198e-14 0)
(2.9 -2.8844e-14 0)
(2.9 5.62923e-14 0)
(2.9 2.34734e-14 0)
(2.9 5.05383e-14 0)
(2.9 8.17458e-15 0)
(2.9 -5.45901e-14 0)
(2.9 1.99785e-14 0)
(2.9 6.48472e-14 0)
(2.9 6.01292e-14 0)
(2.9 1.67558e-14 0)
(2.9 4.37823e-15 0)
(2.9 -3.71359e-14 0)
(2.9 -1.13387e-14 0)
(2.9 6.40283e-14 0)
(2.9 4.66491e-14 0)
(2.9 -5.61215e-15 0)
(2.9 1.74937e-14 0)
(2.9 -8.02718e-15 0)
(2.9 3.39013e-15 0)
(2.9 1.78086e-14 0)
(2.9 1.36228e-14 0)
(2.9 3.48237e-14 0)
(2.9 7.2002e-14 0)
(2.9 1.80173e-15 0)
(2.9 2.05368e-14 0)
(2.9 7.12624e-14 0)
(2.9 3.47407e-14 0)
(2.9 3.06072e-14 0)
(2.9 -7.02297e-14 0)
(2.9 -5.7203e-14 0)
(2.9 -2.46672e-14 0)
(2.9 2.98477e-16 0)
(2.9 -6.87781e-15 0)
(2.9 -4.35263e-14 0)
(2.9 -1.25833e-14 0)
(2.9 -2.06409e-14 0)
(2.9 1.38779e-14 0)
(2.9 7.55485e-14 0)
(2.9 6.02966e-14 0)
(2.9 -2.44192e-14 0)
(2.9 2.93612e-14 0)
(2.9 -1.33461e-14 0)
(2.9 -4.52473e-14 0)
(2.9 5.73948e-15 0)
(2.9 4.01355e-14 0)
(2.9 6.59657e-14 0)
(2.9 1.42149e-15 0)
(2.9 3.59293e-14 0)
(2.9 3.79668e-14 0)
(2.9 6.13911e-14 0)
(2.9 -1.33823e-14 0)
(2.9 1.61244e-14 0)
(2.9 5.66478e-14 0)
(2.9 -3.21304e-14 0)
(2.9 -2.53356e-14 0)
(2.9 -7.94398e-14 0)
(2.9 -2.55778e-14 0)
(2.9 -1.51023e-14 0)
(2.9 -2.4103e-14 0)
(2.9 -4.33489e-14 0)
(2.9 -1.08733e-14 0)
(2.9 3.45878e-14 0)
(2.9 3.26622e-14 0)
(2.9 3.22858e-14 0)
(2.9 2.86678e-14 0)
(2.9 -5.97184e-14 0)
(2.9 6.97361e-15 0)
(2.9 -1.11701e-15 0)
(2.9 4.1564e-14 0)
(2.9 4.00579e-14 0)
(2.9 1.89322e-14 0)
(2.9 -2.72499e-14 0)
(2.9 -2.83243e-14 0)
(2.9 -9.86815e-15 0)
(2.9 4.85739e-14 0)
(2.9 5.88372e-15 0)
(2.9 4.02617e-14 0)
(2.9 -7.58421e-14 0)
(2.9 -2.39675e-14 0)
(2.9 9.60972e-16 0)
(2.9 1.44588e-14 0)
(2.9 3.09531e-14 0)
(2.9 9.13433e-15 0)
(2.9 9.38328e-15 0)
(2.9 4.1661e-14 0)
(2.9 5.69181e-14 0)
(2.9 -5.04103e-16 0)
(2.9 2.69268e-14 0)
(2.9 3.55139e-15 0)
(2.9 -4.71913e-14 0)
(2.9 -1.77274e-14 0)
(2.9 1.16849e-14 0)
(2.9 5.32639e-14 0)
(2.9 1.39618e-14 0)
(2.9 -3.08606e-14 0)
(2.9 3.23956e-14 0)
(2.9 -4.99968e-16 0)
(2.9 3.07339e-14 0)
(2.9 2.53978e-14 0)
(2.9 2.52164e-14 0)
(2.9 1.86965e-14 0)
(2.9 1.08635e-14 0)
(2.9 5.21094e-14 0)
(2.9 5.03353e-14 0)
(2.9 3.0967e-14 0)
(2.9 2.60535e-14 0)
(2.9 1.83468e-14 0)
(2.9 2.57069e-14 0)
(2.9 4.26699e-14 0)
(2.9 9.47709e-15 0)
(2.9 3.11528e-14 0)
(2.9 3.62215e-14 0)
(2.9 4.64831e-15 0)
(2.9 1.37956e-14 0)
(2.9 3.13046e-14 0)
(2.9 1.7064e-14 0)
(2.9 2.05686e-14 0)
(2.9 2.28309e-15 0)
(2.9 3.47004e-14 0)
(2.9 3.30086e-14 0)
(2.9 3.36859e-14 0)
(2.9 3.17327e-15 0)
(2.9 5.70603e-14 0)
(2.9 -3.50676e-15 0)
(2.9 2.02991e-14 0)
(2.9 -2.82142e-15 0)
(2.9 5.81037e-15 0)
(2.9 -3.26402e-15 0)
(2.9 -4.78189e-14 0)
(2.9 3.29256e-14 0)
(2.9 -2.21889e-14 0)
(2.9 2.36151e-14 0)
(2.9 -2.97935e-14 0)
(2.9 -5.36237e-14 0)
(2.9 4.60946e-15 0)
(2.9 -5.67327e-14 0)
(2.9 -1.51514e-15 0)
(2.9 -4.18279e-14 0)
(2.9 -1.01806e-14 0)
(2.9 -4.13803e-14 0)
(2.9 5.47976e-14 0)
(2.9 2.06886e-14 0)
(2.9 -6.31414e-14 0)
(2.9 1.82468e-14 0)
(2.9 8.6678e-14 0)
(2.9 2.92986e-14 0)
(2.9 -1.84686e-14 0)
(2.9 -1.19626e-14 0)
(2.9 2.8398e-14 0)
(2.9 -4.36143e-14 0)
(2.9 9.43027e-15 0)
(2.9 9.88565e-15 0)
(2.9 3.72169e-14 0)
(2.9 3.47421e-14 0)
(2.9 -2.19946e-15 0)
(2.9 -2.17382e-14 0)
(2.9 -4.07118e-14 0)
(2.9 -6.58895e-14 0)
(2.9 -2.00588e-15 0)
(2.9 7.802e-14 0)
(2.9 8.95578e-15 0)
(2.9 9.37943e-14 0)
(2.9 1.25953e-13 0)
(2.9 1.98075e-14 0)
(2.9 -4.11079e-14 0)
(2.9 -9.08607e-15 0)
(2.9 9.4234e-14 0)
(2.9 3.11153e-14 0)
(2.9 6.24542e-16 0)
(2.9 -3.91842e-14 0)
(2.9 4.0403e-14 0)
(2.9 1.73701e-14 0)
(2.9 -3.40516e-14 0)
(2.9 4.6704e-15 0)
(2.9 4.70925e-14 0)
(2.9 1.38724e-13 0)
(2.9 9.95339e-14 0)
(2.9 1.5503e-14 0)
(2.9 6.16749e-14 0)
(2.9 1.11042e-13 0)
(2.9 6.20561e-14 0)
(2.9 -2.577e-14 0)
(2.9 5.44166e-14 0)
(2.9 -2.63904e-14 0)
(2.9 -2.34882e-14 0)
(2.9 3.05465e-14 0)
(2.9 -2.81989e-15 0)
(2.9 3.01112e-14 0)
(2.9 -9.32973e-14 0)
(2.9 5.16451e-15 0)
(2.9 -4.09346e-14 0)
(2.9 4.38653e-14 0)
(2.9 3.18262e-14 0)
(2.9 2.36029e-14 0)
(2.9 -2.55939e-14 0)
(2.9 -2.95769e-14 0)
(2.9 -1.36332e-14 0)
(2.9 4.07423e-14 0)
(2.9 6.207e-14 0)
(2.9 -2.26676e-14 0)
(2.9 3.23262e-14 0)
(2.9 -1.59662e-14 0)
(2.9 -6.70993e-14 0)
(2.9 2.16183e-14 0)
(2.9 4.73532e-14 0)
(2.9 4.65006e-14 0)
(2.9 -1.4558e-14 0)
(2.9 -6.25076e-14 0)
(2.9 -4.91547e-15 0)
(2.9 -1.17141e-14 0)
(2.9 1.44294e-14 0)
(2.9 -3.8229e-14 0)
(2.9 -5.02964e-15 0)
(2.9 1.14565e-14 0)
(2.9 1.41588e-14 0)
(2.9 2.63386e-14 0)
(2.9 5.76206e-14 0)
(2.9 -4.70671e-16 0)
(2.9 -4.78922e-15 0)
(2.9 2.00474e-14 0)
(2.9 6.85774e-15 0)
(2.9 3.42408e-14 0)
(2.9 4.91954e-14 0)
(2.9 1.34306e-14 0)
(2.9 -6.48589e-15 0)
(2.9 1.2081e-14 0)
(2.9 3.7343e-14 0)
(2.9 8.05956e-15 0)
(2.9 5.65062e-16 0)
(2.9 -2.12037e-14 0)
(2.9 4.68453e-15 0)
(2.9 3.15493e-14 0)
(2.9 6.61726e-15 0)
(2.9 1.28281e-14 0)
(2.9 3.91326e-14 0)
(2.9 8.60771e-14 0)
(2.9 7.21518e-14 0)
(2.9 3.5405e-14 0)
(2.9 3.61398e-14 0)
(2.9 6.55605e-14 0)
(2.9 2.71698e-14 0)
(2.9 1.50757e-15 0)
(2.9 3.58849e-14 0)
(2.9 -3.17147e-14 0)
(2.9 -4.05337e-14 0)
(2.9 2.30066e-14 0)
(2.9 2.58406e-15 0)
(2.9 -8.95138e-15 0)
(2.9 -2.06394e-14 0)
(2.9 -9.62312e-16 0)
(2.9 1.11031e-14 0)
(2.9 4.42134e-14 0)
(2.9 3.29132e-14 0)
(2.9 -9.27554e-16 0)
(2.9 -2.71295e-15 0)
(2.9 -3.07708e-15 0)
(2.9 8.57034e-15 0)
(2.9 2.40644e-14 0)
(2.9 1.36187e-14 0)
(2.9 3.85967e-14 0)
(2.9 3.79032e-14 0)
(2.9 2.42224e-15 0)
(2.9 -1.59569e-14 0)
(2.9 -5.55265e-15 0)
(2.9 -2.82683e-14 0)
(2.9 2.86352e-14 0)
(2.9 -2.62108e-14 0)
(2.9 -4.7493e-14 0)
(2.9 -3.92442e-14 0)
(2.9 3.16223e-14 0)
(2.9 1.64469e-15 0)
(2.9 -1.04766e-13 0)
(2.9 -3.76685e-14 0)
(2.9 -1.04668e-14 0)
(2.9 1.53202e-14 0)
(2.9 4.8245e-14 0)
(2.9 5.78263e-14 0)
(2.9 1.63258e-14 0)
(2.9 -4.36969e-14 0)
(2.9 -3.01401e-14 0)
(2.9 -2.0029e-14 0)
(2.9 -3.5104e-14 0)
(2.9 -3.06843e-14 0)
(2.9 -9.83288e-15 0)
(2.9 3.81196e-14 0)
(2.9 2.50763e-14 0)
(2.9 -1.7714e-14 0)
(2.9 4.62952e-14 0)
(2.9 2.54878e-14 0)
(2.9 -2.11491e-14 0)
(2.9 1.21298e-14 0)
(2.9 4.02897e-14 0)
(2.9 5.32268e-14 0)
(2.9 8.57713e-14 0)
(2.9 -4.80153e-15 0)
(2.9 -3.57391e-14 0)
(2.9 8.87185e-16 0)
(2.9 1.4532e-14 0)
(2.9 5.01575e-14 0)
(2.9 1.16109e-14 0)
(2.9 -7.84757e-15 0)
(2.9 1.2148e-14 0)
(2.9 3.40938e-14 0)
(2.9 3.00141e-14 0)
(2.9 -2.89007e-15 0)
(2.9 -1.86439e-14 0)
(2.9 1.11346e-14 0)
(2.9 2.19882e-15 0)
(2.9 4.7045e-15 0)
(2.9 -1.25143e-14 0)
(2.9 6.61276e-14 0)
(2.9 -9.01079e-15 0)
(2.9 -7.93839e-15 0)
(2.9 -1.88674e-14 0)
(2.9 3.19753e-15 0)
(2.9 2.24721e-14 0)
(2.9 -8.56606e-15 0)
(2.9 4.54209e-14 0)
(2.9 -9.6777e-15 0)
(2.9 5.42794e-14 0)
(2.9 4.98274e-14 0)
(2.9 4.89421e-14 0)
(2.9 3.61199e-14 0)
(2.9 4.89375e-14 0)
(2.9 -6.17285e-15 0)
(2.9 1.31615e-14 0)
(2.9 -3.53911e-14 0)
(2.9 1.13433e-14 0)
(2.9 -3.58798e-14 0)
(2.9 -3.40358e-14 0)
(2.9 -4.27906e-14 0)
(2.9 -5.97988e-14 0)
(2.9 -2.34325e-14 0)
(2.9 -5.01009e-14 0)
(2.9 3.59501e-15 0)
(2.9 -4.13679e-14 0)
(2.9 -1.3543e-14 0)
(2.9 1.86404e-14 0)
(2.9 -3.00386e-14 0)
(2.9 2.4948e-14 0)
(2.9 2.67969e-14 0)
(2.9 -3.90436e-14 0)
(2.9 -4.16023e-14 0)
(2.9 -1.51915e-14 0)
(2.9 4.86318e-14 0)
(2.9 -1.17488e-14 0)
(2.9 -7.24721e-14 0)
(2.9 2.10901e-14 0)
(2.9 5.84207e-14 0)
(2.9 1.24713e-15 0)
(2.9 2.45242e-15 0)
(2.9 -1.26641e-15 0)
(2.9 2.17508e-14 0)
(2.9 6.05389e-14 0)
(2.9 -1.38996e-14 0)
(2.9 -9.36281e-14 0)
(2.9 -3.87099e-14 0)
(2.9 -1.15504e-14 0)
(2.9 9.52395e-15 0)
(2.9 7.18355e-14 0)
(2.9 6.33113e-15 0)
(2.9 -2.98175e-14 0)
(2.9 2.96294e-15 0)
(2.9 1.59075e-14 0)
(2.9 -3.55326e-15 0)
(2.9 -2.19563e-14 0)
(2.9 1.18318e-14 0)
(2.9 3.25579e-14 0)
(2.9 2.05664e-14 0)
(2.9 -2.78327e-14 0)
(2.9 1.35911e-14 0)
(2.9 -2.15654e-14 0)
(2.9 -6.71402e-15 0)
(2.9 4.04644e-15 0)
(2.9 -3.9875e-14 0)
(2.9 5.66478e-14 0)
(2.9 1.02004e-14 0)
(2.9 5.07332e-14 0)
(2.9 4.70092e-14 0)
(2.9 1.06042e-14 0)
(2.9 8.21267e-14 0)
(2.9 1.92622e-14 0)
(2.9 6.64581e-14 0)
(2.9 1.24018e-13 0)
(2.9 1.01998e-13 0)
(2.9 2.15595e-14 0)
(2.9 -3.40414e-14 0)
(2.9 -2.70115e-14 0)
(2.9 -5.40714e-14 0)
(2.9 -4.39567e-14 0)
(2.9 -7.45096e-15 0)
(2.9 1.86096e-14 0)
(2.9 -5.10429e-14 0)
(2.9 4.28577e-15 0)
(2.9 -1.18551e-15 0)
(2.9 -2.09977e-14 0)
(2.9 -1.6282e-14 0)
(2.9 1.61595e-14 0)
(2.9 3.48918e-14 0)
(2.9 2.98574e-14 0)
(2.9 3.33506e-14 0)
(2.9 -2.02307e-14 0)
(2.9 1.00546e-14 0)
(2.9 -7.88435e-15 0)
(2.9 -3.92981e-15 0)
(2.9 -9.12954e-15 0)
(2.9 -2.36812e-14 0)
(2.9 -9.07406e-15 0)
(2.9 3.41939e-14 0)
(2.9 1.63516e-14 0)
(2.9 -3.2558e-14 0)
(2.9 -7.43684e-15 0)
(2.9 -7.45704e-15 0)
(2.9 -2.15904e-14 0)
(2.9 -2.23701e-14 0)
(2.9 -6.38774e-14 0)
(2.9 -4.35626e-14 0)
(2.9 3.06307e-15 0)
(2.9 -7.24995e-15 0)
(2.9 -4.63396e-15 0)
(2.9 1.1468e-14 0)
(2.9 -6.77011e-15 0)
(2.9 -7.12174e-14 0)
(2.9 1.91628e-14 0)
(2.9 3.98662e-14 0)
(2.9 3.9418e-14 0)
(2.9 2.05277e-14 0)
(2.9 3.40573e-14 0)
(2.9 -1.19311e-14 0)
(2.9 -4.88967e-14 0)
(2.9 -2.62838e-14 0)
(2.9 5.80002e-15 0)
(2.9 1.08115e-14 0)
(2.9 -2.51818e-14 0)
(2.9 -2.97057e-14 0)
(2.9 2.60346e-14 0)
(2.9 -1.01108e-14 0)
(2.9 3.41893e-17 0)
(2.9 4.05011e-14 0)
(2.9 5.43008e-14 0)
(2.9 -1.65311e-15 0)
(2.9 3.49386e-15 0)
(2.9 1.08267e-15 0)
(2.9 2.05045e-14 0)
(2.9 2.92147e-14 0)
(2.9 8.39672e-15 0)
(2.9 1.29381e-14 0)
(2.9 3.92569e-14 0)
(2.9 -4.71459e-14 0)
(2.9 -3.63347e-14 0)
(2.9 4.19042e-14 0)
(2.9 1.9157e-14 0)
(2.9 -4.29231e-14 0)
(2.9 -1.44054e-14 0)
(2.9 -1.96e-14 0)
(2.9 3.56582e-15 0)
(2.9 -7.07512e-15 0)
(2.9 6.91886e-14 0)
(2.9 6.45213e-15 0)
(2.9 8.38185e-15 0)
(2.9 -1.2568e-14 0)
(2.9 -1.05343e-14 0)
(2.9 3.66757e-14 0)
(2.9 5.10354e-14 0)
(2.9 -2.59596e-15 0)
(2.9 -6.51295e-15 0)
(2.9 -7.41732e-15 0)
(2.9 -2.22567e-14 0)
(2.9 3.99754e-14 0)
(2.9 -1.89052e-15 0)
(2.9 -1.24013e-14 0)
(2.9 -1.10441e-14 0)
(2.9 1.78888e-14 0)
(2.9 -5.22557e-14 0)
(2.9 -5.5071e-14 0)
(2.9 -1.18492e-14 0)
(2.9 -3.73342e-15 0)
(2.9 -1.36668e-14 0)
(2.9 -1.35599e-15 0)
(2.9 -2.95086e-14 0)
(2.9 -3.01796e-15 0)
(2.9 1.8239e-14 0)
(2.9 -6.31955e-14 0)
(2.9 2.28176e-14 0)
(2.9 6.99126e-14 0)
(2.9 4.83555e-14 0)
(2.9 5.78949e-15 0)
(2.9 -9.17846e-15 0)
(2.9 -3.38368e-14 0)
(2.9 -3.8589e-14 0)
(2.9 -6.98864e-15 0)
(2.9 -2.54263e-14 0)
(2.9 1.46762e-14 0)
(2.9 -1.44658e-14 0)
(2.9 9.0297e-15 0)
(2.9 -3.37726e-14 0)
(2.9 -3.48091e-14 0)
(2.9 -1.71639e-14 0)
(2.9 -3.57687e-15 0)
(2.9 3.36173e-15 0)
(2.9 -2.73981e-14 0)
(2.9 -8.18951e-15 0)
(2.9 -5.65789e-14 0)
(2.9 -5.16804e-14 0)
(2.9 -5.10086e-14 0)
(2.9 -3.08814e-14 0)
(2.9 6.26116e-14 0)
(2.9 6.68369e-14 0)
(2.9 1.47308e-14 0)
(2.9 4.96501e-14 0)
(2.9 3.58738e-14 0)
(2.9 5.51101e-14 0)
(2.9 2.46672e-14 0)
(2.9 2.51883e-14 0)
(2.9 -5.08822e-14 0)
(2.9 -3.31991e-14 0)
(2.9 -6.17775e-14 0)
(2.9 1.39341e-14 0)
(2.9 -3.16611e-14 0)
(2.9 -1.91556e-14 0)
(2.9 -6.62406e-14 0)
(2.9 1.37516e-16 0)
(2.9 2.83574e-14 0)
(2.9 4.70411e-14 0)
(2.9 -1.4398e-14 0)
(2.9 -2.00918e-14 0)
(2.9 -2.5108e-14 0)
(2.9 -7.65152e-15 0)
(2.9 5.7196e-15 0)
(2.9 2.20029e-14 0)
(2.9 -2.92723e-14 0)
(2.9 -4.21315e-14 0)
(2.9 -2.40002e-14 0)
(2.9 -2.9377e-15 0)
(2.9 -2.89105e-14 0)
(2.9 3.70085e-15 0)
(2.9 2.94374e-14 0)
(2.9 -3.91864e-14 0)
(2.9 1.19675e-14 0)
(2.9 -1.07967e-14 0)
(2.9 -1.37233e-14 0)
(2.9 -1.57724e-14 0)
(2.9 7.06826e-15 0)
(2.9 3.18681e-14 0)
(2.9 6.64557e-14 0)
(2.9 -5.02113e-15 0)
(2.9 3.51822e-14 0)
(2.9 9.76409e-15 0)
(2.9 -1.89292e-14 0)
(2.9 2.85919e-14 0)
(2.9 1.09903e-14 0)
(2.9 -3.88414e-14 0)
(2.9 -3.48535e-14 0)
(2.9 -1.79109e-14 0)
(2.9 5.80109e-14 0)
(2.9 2.03999e-15 0)
(2.9 -2.07244e-15 0)
(2.9 -8.70169e-15 0)
(2.9 -1.45262e-14 0)
(2.9 -3.2857e-14 0)
(2.9 -4.28272e-14 0)
(2.9 1.27835e-15 0)
(2.9 -6.61123e-15 0)
(2.9 1.6452e-14 0)
(2.9 -4.63141e-14 0)
(2.9 -7.60329e-14 0)
(2.9 3.2167e-14 0)
(2.9 4.8247e-14 0)
(2.9 -8.05528e-15 0)
(2.9 2.19267e-14 0)
(2.9 1.31062e-14 0)
(2.9 3.51491e-14 0)
(2.9 4.06497e-14 0)
(2.9 2.17537e-14 0)
(2.9 -3.82711e-14 0)
(2.9 -2.01825e-14 0)
(2.9 -1.34512e-14 0)
(2.9 -1.73592e-14 0)
(2.9 -2.98335e-14 0)
(2.9 -4.57811e-15 0)
(2.9 -2.21341e-14 0)
(2.9 -2.47765e-14 0)
(2.9 -1.61107e-14 0)
(2.9 -1.71871e-14 0)
(2.9 -1.39448e-14 0)
(2.9 5.67722e-15 0)
(2.9 -3.18654e-14 0)
(2.9 -1.78748e-15 0)
(2.9 6.47054e-15 0)
(2.9 3.83029e-14 0)
(2.9 2.42872e-14 0)
(2.9 -1.95267e-14 0)
(2.9 -6.15522e-14 0)
(2.9 -2.11369e-14 0)
(2.9 -2.15833e-14 0)
(2.9 6.19273e-15 0)
(2.9 2.7459e-14 0)
(2.9 5.89409e-17 0)
(2.9 2.68509e-15 0)
(2.9 -1.36748e-14 0)
(2.9 -3.10624e-15 0)
(2.9 -9.87689e-15 0)
(2.9 2.41328e-14 0)
(2.9 -1.07552e-15 0)
(2.9 -1.33597e-14 0)
(2.9 6.77532e-15 0)
(2.9 2.05212e-14 0)
(2.9 4.27511e-15 0)
(2.9 -9.47836e-15 0)
(2.9 9.36803e-15 0)
(2.9 1.63842e-14 0)
(2.9 -2.06171e-14 0)
(2.9 -4.728e-14 0)