/*--------------------------------*- C++ -*----------------------------------*\
| =========                 |                                                 |
| \\      /  F ield         | OpenFOAM: The Open Source CFD Toolbox           |
|  \\    /   O peration     | Version:  2412                                  |
|   \\  /    A nd           | Website:  www.openfoam.com                      |
|    \\/     M anipulation  |                                                 |
\*---------------------------------------------------------------------------*/
FoamFile
{
    version     2.0;
    format      ascii;
    arch        "LSB;label=32;scalar=64";
    class       volScalarField;
    location    "0.00987437";
    object      rhoY_Y_O2;
}
// * * * * * * * * * * * * * * * * * * * * * * * * * * * * * * * * * * * * * //

dimensions      [1 -3 0 0 0 0 0];

internalField   nonuniform List<scalar> 
100
(
0
0
0
0
0
0
0
0
0
0
0
0
0
0
0
0
0
0
0
0
0
0
0
0
0
0
0
0
0
0
0
0
0
0
0
0
0
0
0
0
0
0
0
0
0
0
0
0
0
-0.260087
-0.0564905
-0.0505481
-0.0423386
-0.0371498
-0.0338253
-0.0311765
-0.0289546
-0.0274083
-0.0261918
-0.0250441
-0.0242538
-0.0233338
-0.0227025
-0.0221232
-0.0215169
-0.0208477
-0.020244
-0.019835
-0.0195317
-0.0190487
-0.0186072
-0.0183383
-0.00547858
0.0504433
0.139268
0.222795
0.284896
0.321577
0.347143
0.364074
0.374623
0.379715
0.380917
0.37868
0.378295
0.378636
0.380919
0.383767
0.384094
0.38354
0.379155
0.376444
0.375845
0.375509
0.377676
0.396985
0.405728
0.33395
0.177858
0.160393
)
;

boundaryField
{
    sides
    {
        type            calculated;
        value           nonuniform List<scalar> 2(0.160357 0);
    }
    empty
    {
        type            empty;
    }
}


// ************************************************************************* //
