/*--------------------------------*- C++ -*----------------------------------*\
| =========                 |                                                 |
| \\      /  F ield         | OpenFOAM: The Open Source CFD Toolbox           |
|  \\    /   O peration     | Version:  2412                                  |
|   \\  /    A nd           | Website:  www.openfoam.com                      |
|    \\/     M anipulation  |                                                 |
\*---------------------------------------------------------------------------*/
FoamFile
{
    version     2.0;
    format      ascii;
    arch        "LSB;label=32;scalar=64";
    class       volVectorField;
    location    "0.00987437";
    object      U;
}
// * * * * * * * * * * * * * * * * * * * * * * * * * * * * * * * * * * * * * //

dimensions      [0 1 -1 0 0 0 0];

internalField   nonuniform List<vector> 
100
(
(2.73585e-15 0 0)
(-1.68761e-14 0 0)
(3.04495e-14 0 0)
(4.71164e-14 0 0)
(-7.24816e-15 0 0)
(2.69288e-14 0 0)
(6.3382e-14 0 0)
(1.66918e-13 0 0)
(1.28284e-13 0 0)
(9.09447e-14 0 0)
(1.6281e-13 0 0)
(8.10563e-13 0 0)
(3.88372e-10 0 0)
(1.60217e-07 0 0)
(4.33219e-05 0 0)
(0.00576193 0 0)
(0.264788 0 0)
(3.229 0 0)
(12.9015 0 0)
(26.3313 0 0)
(38.6362 0 0)
(48.8949 0 0)
(57.9301 0 0)
(66.4586 0 0)
(74.8284 0 0)
(83.1705 0 0)
(91.5131 0 0)
(99.893 0 0)
(108.249 0 0)
(116.739 0 0)
(124.998 0 0)
(133.732 0 0)
(141.599 0 0)
(150.729 0 0)
(158.199 0 0)
(167.174 0 0)
(175.269 0 0)
(182.967 0 0)
(191.967 0 0)
(199.451 0 0)
(208.228 0 0)
(215.921 0 0)
(224.845 0 0)
(232.873 0 0)
(241.675 0 0)
(249.674 0 0)
(256.793 0 0)
(265.265 0 0)
(274.18 0 0)
(281.306 0 0)
(282.004 0 0)
(281.354 0 0)
(282.026 0 0)
(287.321 0 0)
(288.401 0 0)
(278.844 0 0)
(276.526 0 0)
(281.475 0 0)
(289.498 0 0)
(289.669 0 0)
(278.928 0 0)
(277.309 0 0)
(280.743 0 0)
(288.075 0 0)
(287.851 0 0)
(281.299 0 0)
(277.003 0 0)
(277.982 0 0)
(284.953 0 0)
(288.281 0 0)
(285.779 0 0)
(284.748 0 0)
(279.332 0 0)
(278.346 0 0)
(279.987 0 0)
(282.359 0 0)
(282.623 0 0)
(278.17 0 0)
(278.099 0 0)
(280.094 0 0)
(282.573 0 0)
(283.579 0 0)
(282.971 0 0)
(280.32 0 0)
(279.572 0 0)
(279.673 0 0)
(281.309 0 0)
(283.568 0 0)
(283.73 0 0)
(282.756 0 0)
(279.039 0 0)
(276.823 0 0)
(276.302 0 0)
(276.404 0 0)
(278.891 0 0)
(293.943 0 0)
(295.343 0 0)
(228.622 0 0)
(34.2431 0 0)
(0.167539 0 0)
)
;

boundaryField
{
    sides
    {
        type            fixedValue;
        value           uniform (0 0 0);
    }
    empty
    {
        type            empty;
    }
}


// ************************************************************************* //
