/*--------------------------------*- C++ -*----------------------------------*\
| =========                 |                                                 |
| \\      /  F ield         | OpenFOAM: The Open Source CFD Toolbox           |
|  \\    /   O peration     | Version:  2412                                  |
|   \\  /    A nd           | Website:  www.openfoam.com                      |
|    \\/     M anipulation  |                                                 |
\*---------------------------------------------------------------------------*/
FoamFile
{
    version     2.0;
    format      ascii;
    arch        "LSB;label=32;scalar=64";
    class       volScalarField;
    location    "0.0215622";
    object      rho;
}
// * * * * * * * * * * * * * * * * * * * * * * * * * * * * * * * * * * * * * //

dimensions      [1 -3 0 0 0 0 0];

internalField   nonuniform List<scalar> 
100
(
0.595033
0.595057
0.595231
0.595259
0.59514
0.594842
0.5944
0.593935
0.593423
0.592935
0.592412
0.591952
0.591371
0.59077
0.589806
0.588323
0.586891
0.585378
0.584868
0.583753
0.584315
0.585686
0.588044
0.591568
0.597054
0.607552
0.615769
0.611158
0.601223
0.59134
0.579711
0.569335
0.560536
0.552454
0.545254
0.540551
0.535021
0.527939
0.520609
0.513475
0.506711
0.500208
0.494532
0.489189
0.482223
0.475363
0.471177
0.466951
0.461907
0.459343
0.459329
0.459739
0.460703
0.461614
0.460022
0.458083
0.462507
0.46796
0.461744
0.447406
0.450476
0.477918
0.485435
0.450594
0.425536
0.447488
0.505445
0.5052
0.437983
0.407768
0.446296
0.521152
0.515601
0.437202
0.437189
0.820334
1.07693
1.04154
1.04106
1.02826
1.01244
1.02309
1.01056
1.02064
1.0446
1.03554
1.07095
1.13131
1.13803
1.08774
0.997309
0.940095
0.912461
0.889073
0.867343
0.847829
0.841739
0.859677
0.895483
0.930517
)
;

boundaryField
{
    sides
    {
        type            calculated;
        value           nonuniform List<scalar> 2(0.930517 0.595033);
    }
    empty
    {
        type            empty;
    }
}


// ************************************************************************* //
