/*--------------------------------*- C++ -*----------------------------------*\
| =========                 |                                                 |
| \\      /  F ield         | OpenFOAM: The Open Source CFD Toolbox           |
|  \\    /   O peration     | Version:  2412                                  |
|   \\  /    A nd           | Website:  www.openfoam.com                      |
|    \\/     M anipulation  |                                                 |
\*---------------------------------------------------------------------------*/
FoamFile
{
    version     2.0;
    format      ascii;
    arch        "LSB;label=32;scalar=64";
    class       volVectorField;
    location    "0.0215622";
    object      U;
}
// * * * * * * * * * * * * * * * * * * * * * * * * * * * * * * * * * * * * * //

dimensions      [0 1 -1 0 0 0 0];

internalField   nonuniform List<vector> 
100
(
(3.44958 0 0)
(10.4367 0 0)
(17.3558 0 0)
(24.2753 0 0)
(31.2318 0 0)
(38.1696 0 0)
(45.1301 0 0)
(52.0576 0 0)
(58.9735 0 0)
(65.9216 0 0)
(72.8565 0 0)
(79.9016 0 0)
(86.7572 0 0)
(93.736 0 0)
(100.194 0 0)
(107.088 0 0)
(113.356 0 0)
(120.226 0 0)
(126.823 0 0)
(134.306 0 0)
(141.787 0 0)
(149.841 0 0)
(158.904 0 0)
(167.969 0 0)
(178.794 0 0)
(191.637 0 0)
(203.246 0 0)
(208.633 0 0)
(212.111 0 0)
(214.62 0 0)
(216.673 0 0)
(218.876 0 0)
(222.044 0 0)
(225.287 0 0)
(229.34 0 0)
(234.543 0 0)
(239.287 0 0)
(243.043 0 0)
(246.67 0 0)
(250.406 0 0)
(254.307 0 0)
(258.283 0 0)
(262.301 0 0)
(265.853 0 0)
(269.444 0 0)
(273.472 0 0)
(276.888 0 0)
(279.51 0 0)
(282.273 0 0)
(283.978 0 0)
(284.181 0 0)
(283.876 0 0)
(283.466 0 0)
(282.816 0 0)
(282.656 0 0)
(284.003 0 0)
(284.672 0 0)
(281.81 0 0)
(280.354 0 0)
(284.041 0 0)
(287.412 0 0)
(285.212 0 0)
(278 0 0)
(276.688 0 0)
(289.132 0 0)
(291.422 0 0)
(282.418 0 0)
(272.252 0 0)
(273.149 0 0)
(291.138 0 0)
(291.29 0 0)
(280.833 0 0)
(271.923 0 0)
(269.914 0 0)
(265.762 0 0)
(87.915 0 0)
(12.7614 0 0)
(17.0911 0 0)
(21.5351 0 0)
(8.49628 0 0)
(18.1973 0 0)
(12.7886 0 0)
(11.8749 0 0)
(20.699 0 0)
(13.7362 0 0)
(9.19599 0 0)
(1.7146 0 0)
(-8.31425 0 0)
(-14.915 0 0)
(-13.1393 0 0)
(-8.51381 0 0)
(-0.607685 0 0)
(4.3084 0 0)
(6.73839 0 0)
(5.55554 0 0)
(3.14117 0 0)
(3.58539 0 0)
(0.487604 0 0)
(-0.886448 0 0)
(3.86356 0 0)
)
;

boundaryField
{
    sides
    {
        type            fixedValue;
        value           uniform (0 0 0);
    }
    empty
    {
        type            empty;
    }
}


// ************************************************************************* //
