/*--------------------------------*- C++ -*----------------------------------*\
| =========                 |                                                 |
| \\      /  F ield         | OpenFOAM: The Open Source CFD Toolbox           |
|  \\    /   O peration     | Version:  2412                                  |
|   \\  /    A nd           | Website:  www.openfoam.com                      |
|    \\/     M anipulation  |                                                 |
\*---------------------------------------------------------------------------*/
FoamFile
{
    version     2.0;
    format      ascii;
    arch        "LSB;label=32;scalar=64";
    class       volScalarField;
    location    "0.0238194";
    object      rho;
}
// * * * * * * * * * * * * * * * * * * * * * * * * * * * * * * * * * * * * * //

dimensions      [1 -3 0 0 0 0 0];

internalField   nonuniform List<scalar> 
100
(
0.513136
0.513165
0.513276
0.513338
0.513351
0.513247
0.513037
0.512841
0.512582
0.512364
0.511983
0.511666
0.511267
0.510835
0.510521
0.509762
0.509538
0.508662
0.508234
0.507554
0.507023
0.506634
0.505857
0.505354
0.50404
0.502875
0.501146
0.499751
0.498239
0.49735
0.496851
0.497223
0.497403
0.496593
0.495414
0.499155
0.515766
0.528219
0.523573
0.516633
0.510068
0.502631
0.492998
0.484062
0.475957
0.469549
0.465784
0.46426
0.461232
0.459252
0.459603
0.460115
0.460413
0.461341
0.461325
0.459144
0.459307
0.464362
0.464712
0.454556
0.450745
0.467103
0.479358
0.461031
0.433441
0.442954
0.492804
0.50501
0.447519
0.414716
0.672536
1.0567
1.04183
1.04393
1.02627
1.01385
1.02837
1.02533
1.06277
1.09676
1.096
1.08802
1.07622
1.08059
1.08271
1.06505
1.07622
1.08394
1.07534
1.04813
0.994973
0.947282
0.913755
0.884413
0.863175
0.852764
0.861281
0.882398
0.901932
0.918574
)
;

boundaryField
{
    sides
    {
        type            calculated;
        value           nonuniform List<scalar> 2(0.918574 0.513136);
    }
    empty
    {
        type            empty;
    }
}


// ************************************************************************* //
