/*--------------------------------*- C++ -*----------------------------------*\
| =========                 |                                                 |
| \\      /  F ield         | OpenFOAM: The Open Source CFD Toolbox           |
|  \\    /   O peration     | Version:  2412                                  |
|   \\  /    A nd           | Website:  www.openfoam.com                      |
|    \\/     M anipulation  |                                                 |
\*---------------------------------------------------------------------------*/
FoamFile
{
    version     2.0;
    format      ascii;
    arch        "LSB;label=32;scalar=64";
    class       surfaceScalarField;
    location    "0.0489057";
    object      phiRhoY_Y_N2;
}
// * * * * * * * * * * * * * * * * * * * * * * * * * * * * * * * * * * * * * //

dimensions      [1 0 -1 0 0 0 0];

internalField   nonuniform List<scalar> 
99
(
-84.4994
-98.1518
-87.7372
-14.4849
168.322
155.506
-276.139
-505.749
-512.449
-511.582
-505.041
-468.739
-454.645
-454.612
-458.95
-490.302
-502.286
-502.968
-497.247
-457.541
-436.447
-434.955
-436.933
-486.875
-527.478
-530.41
-530.318
-506.412
-434.646
-405.224
-402.513
-401.311
-406.447
-448.077
-478.425
-481.352
-481.945
-473.791
-460.982
-456.504
-454.137
-447.501
-432.343
-424.761
-423.975
-426.452
-440.871
-447.414
-448.414
-439.143
-413.81
-403.869
-403.091
-433.188
-516.13
-537.31
-539.123
-536.085
-504.07
-413.08
-343.302
-316.787
-306.05
-298.747
-290.421
-281.056
-273.567
-271.01
-270.788
-271.208
-272.367
-273.672
-271.371
-258.323
-238.699
-219.099
-204.562
-193.82
-186.186
-181.866
-178.686
-167.876
-138.668
-96.5503
-53.0216
-18.2714
-2.26746
0
-0.590802
-0.53341
0
-0.0183989
-0.0160749
-2.41209e-05
-2.02888e-05
0
0
0
0
)
;

boundaryField
{
    sides
    {
        type            calculated;
        value           uniform 0;
    }
    empty
    {
        type            empty;
    }
}


// ************************************************************************* //
