/*--------------------------------*- C++ -*----------------------------------*\
| =========                 |                                                 |
| \\      /  F ield         | OpenFOAM: The Open Source CFD Toolbox           |
|  \\    /   O peration     | Version:  2412                                  |
|   \\  /    A nd           | Website:  www.openfoam.com                      |
|    \\/     M anipulation  |                                                 |
\*---------------------------------------------------------------------------*/
FoamFile
{
    version     2.0;
    format      ascii;
    arch        "LSB;label=32;scalar=64";
    class       volScalarField;
    location    "0.0489057";
    object      rhoY_Y_N2;
}
// * * * * * * * * * * * * * * * * * * * * * * * * * * * * * * * * * * * * * //

dimensions      [1 -3 0 0 0 0 0];

internalField   nonuniform List<scalar> 
100
(
0.924228
0.969581
1.00136
1.02342
1.07237
1.08663
0.958715
0.583054
0.517422
0.522874
0.525424
0.516234
0.508404
0.510526
0.514228
0.528262
0.541177
0.545493
0.547678
0.537496
0.526508
0.527341
0.531615
0.549975
0.579355
0.588417
0.592947
0.590973
0.565579
0.547824
0.548235
0.552404
0.557955
0.576427
0.600985
0.609929
0.614756
0.616959
0.615325
0.616515
0.620069
0.6226
0.620974
0.620276
0.623967
0.628981
0.639311
0.649571
0.655588
0.918498
0.708478
0.699596
0.695425
0.702255
0.742273
0.766937
0.771934
0.775206
0.769533
0.735297
0.695848
0.679659
0.676509
0.676393
0.676717
0.67643
0.676332
0.67909
0.683625
0.68866
0.693924
0.700458
0.705743
0.705671
0.701421
0.695875
0.693639
0.692454
0.696939
0.698951
0.700935
0.688583
0.62224
0.495111
0.330417
0.156518
0.0227476
-0.0302489
-0.0322647
0.00781559
-0.0126935
-0.000762933
0.000336567
-0.000370896
5.86364e-07
-3.15706e-06
-1.28953e-07
-4.33778e-08
-4.00737e-09
-2.01132e-10
)
;

boundaryField
{
    sides
    {
        type            calculated;
        value           nonuniform List<scalar> 2(0 1.12308);
    }
    empty
    {
        type            empty;
    }
}


// ************************************************************************* //
